+ 0.1 0 2 tcp 40 ------- 0 0.0 3.1 0 0
- 0.1 0 2 tcp 40 ------- 0 0.0 3.1 0 0
+ 0.2 1 2 cbr 500 ------- 0 1.0 3.0 0 1
- 0.2 1 2 cbr 500 ------- 0 1.0 3.0 0 1
r 0.200004 0 2 tcp 40 ------- 0 0.0 3.1 0 0
+ 0.200004 2 3 tcp 40 ------- 0 0.0 3.1 0 0
- 0.200004 2 3 tcp 40 ------- 0 0.0 3.1 0 0
+ 0.201 1 2 cbr 500 ------- 0 1.0 3.0 1 2
- 0.201 1 2 cbr 500 ------- 0 1.0 3.0 1 2
+ 0.202 1 2 cbr 500 ------- 0 1.0 3.0 2 3
- 0.202 1 2 cbr 500 ------- 0 1.0 3.0 2 3
+ 0.203 1 2 cbr 500 ------- 0 1.0 3.0 3 4
- 0.203 1 2 cbr 500 ------- 0 1.0 3.0 3 4
+ 0.204 1 2 cbr 500 ------- 0 1.0 3.0 4 5
- 0.204 1 2 cbr 500 ------- 0 1.0 3.0 4 5
+ 0.205 1 2 cbr 500 ------- 0 1.0 3.0 5 6
- 0.205 1 2 cbr 500 ------- 0 1.0 3.0 5 6
+ 0.206 1 2 cbr 500 ------- 0 1.0 3.0 6 7
- 0.206 1 2 cbr 500 ------- 0 1.0 3.0 6 7
+ 0.207 1 2 cbr 500 ------- 0 1.0 3.0 7 8
- 0.207 1 2 cbr 500 ------- 0 1.0 3.0 7 8
+ 0.208 1 2 cbr 500 ------- 0 1.0 3.0 8 9
- 0.208 1 2 cbr 500 ------- 0 1.0 3.0 8 9
+ 0.209 1 2 cbr 500 ------- 0 1.0 3.0 9 10
- 0.209 1 2 cbr 500 ------- 0 1.0 3.0 9 10
+ 0.21 1 2 cbr 500 ------- 0 1.0 3.0 10 11
- 0.21 1 2 cbr 500 ------- 0 1.0 3.0 10 11
+ 0.211 1 2 cbr 500 ------- 0 1.0 3.0 11 12
- 0.211 1 2 cbr 500 ------- 0 1.0 3.0 11 12
+ 0.212 1 2 cbr 500 ------- 0 1.0 3.0 12 13
- 0.212 1 2 cbr 500 ------- 0 1.0 3.0 12 13
+ 0.213 1 2 cbr 500 ------- 0 1.0 3.0 13 14
- 0.213 1 2 cbr 500 ------- 0 1.0 3.0 13 14
+ 0.214 1 2 cbr 500 ------- 0 1.0 3.0 14 15
- 0.214 1 2 cbr 500 ------- 0 1.0 3.0 14 15
+ 0.215 1 2 cbr 500 ------- 0 1.0 3.0 15 16
- 0.215 1 2 cbr 500 ------- 0 1.0 3.0 15 16
+ 0.216 1 2 cbr 500 ------- 0 1.0 3.0 16 17
- 0.216 1 2 cbr 500 ------- 0 1.0 3.0 16 17
+ 0.217 1 2 cbr 500 ------- 0 1.0 3.0 17 18
- 0.217 1 2 cbr 500 ------- 0 1.0 3.0 17 18
+ 0.218 1 2 cbr 500 ------- 0 1.0 3.0 18 19
- 0.218 1 2 cbr 500 ------- 0 1.0 3.0 18 19
+ 0.219 1 2 cbr 500 ------- 0 1.0 3.0 19 20
- 0.219 1 2 cbr 500 ------- 0 1.0 3.0 19 20
+ 0.22 1 2 cbr 500 ------- 0 1.0 3.0 20 21
- 0.22 1 2 cbr 500 ------- 0 1.0 3.0 20 21
+ 0.221 1 2 cbr 500 ------- 0 1.0 3.0 21 22
- 0.221 1 2 cbr 500 ------- 0 1.0 3.0 21 22
+ 0.222 1 2 cbr 500 ------- 0 1.0 3.0 22 23
- 0.222 1 2 cbr 500 ------- 0 1.0 3.0 22 23
+ 0.223 1 2 cbr 500 ------- 0 1.0 3.0 23 24
- 0.223 1 2 cbr 500 ------- 0 1.0 3.0 23 24
+ 0.224 1 2 cbr 500 ------- 0 1.0 3.0 24 25
- 0.224 1 2 cbr 500 ------- 0 1.0 3.0 24 25
+ 0.225 1 2 cbr 500 ------- 0 1.0 3.0 25 26
- 0.225 1 2 cbr 500 ------- 0 1.0 3.0 25 26
+ 0.226 1 2 cbr 500 ------- 0 1.0 3.0 26 27
- 0.226 1 2 cbr 500 ------- 0 1.0 3.0 26 27
+ 0.227 1 2 cbr 500 ------- 0 1.0 3.0 27 28
- 0.227 1 2 cbr 500 ------- 0 1.0 3.0 27 28
+ 0.228 1 2 cbr 500 ------- 0 1.0 3.0 28 29
- 0.228 1 2 cbr 500 ------- 0 1.0 3.0 28 29
+ 0.229 1 2 cbr 500 ------- 0 1.0 3.0 29 30
- 0.229 1 2 cbr 500 ------- 0 1.0 3.0 29 30
+ 0.23 1 2 cbr 500 ------- 0 1.0 3.0 30 31
- 0.23 1 2 cbr 500 ------- 0 1.0 3.0 30 31
+ 0.231 1 2 cbr 500 ------- 0 1.0 3.0 31 32
- 0.231 1 2 cbr 500 ------- 0 1.0 3.0 31 32
+ 0.232 1 2 cbr 500 ------- 0 1.0 3.0 32 33
- 0.232 1 2 cbr 500 ------- 0 1.0 3.0 32 33
+ 0.233 1 2 cbr 500 ------- 0 1.0 3.0 33 34
- 0.233 1 2 cbr 500 ------- 0 1.0 3.0 33 34
+ 0.234 1 2 cbr 500 ------- 0 1.0 3.0 34 35
- 0.234 1 2 cbr 500 ------- 0 1.0 3.0 34 35
+ 0.235 1 2 cbr 500 ------- 0 1.0 3.0 35 36
- 0.235 1 2 cbr 500 ------- 0 1.0 3.0 35 36
+ 0.236 1 2 cbr 500 ------- 0 1.0 3.0 36 37
- 0.236 1 2 cbr 500 ------- 0 1.0 3.0 36 37
+ 0.237 1 2 cbr 500 ------- 0 1.0 3.0 37 38
- 0.237 1 2 cbr 500 ------- 0 1.0 3.0 37 38
+ 0.238 1 2 cbr 500 ------- 0 1.0 3.0 38 39
- 0.238 1 2 cbr 500 ------- 0 1.0 3.0 38 39
+ 0.239 1 2 cbr 500 ------- 0 1.0 3.0 39 40
- 0.239 1 2 cbr 500 ------- 0 1.0 3.0 39 40
+ 0.24 1 2 cbr 500 ------- 0 1.0 3.0 40 41
- 0.24 1 2 cbr 500 ------- 0 1.0 3.0 40 41
+ 0.241 1 2 cbr 500 ------- 0 1.0 3.0 41 42
- 0.241 1 2 cbr 500 ------- 0 1.0 3.0 41 42
+ 0.242 1 2 cbr 500 ------- 0 1.0 3.0 42 43
- 0.242 1 2 cbr 500 ------- 0 1.0 3.0 42 43
+ 0.243 1 2 cbr 500 ------- 0 1.0 3.0 43 44
- 0.243 1 2 cbr 500 ------- 0 1.0 3.0 43 44
+ 0.244 1 2 cbr 500 ------- 0 1.0 3.0 44 45
- 0.244 1 2 cbr 500 ------- 0 1.0 3.0 44 45
+ 0.245 1 2 cbr 500 ------- 0 1.0 3.0 45 46
- 0.245 1 2 cbr 500 ------- 0 1.0 3.0 45 46
+ 0.246 1 2 cbr 500 ------- 0 1.0 3.0 46 47
- 0.246 1 2 cbr 500 ------- 0 1.0 3.0 46 47
+ 0.247 1 2 cbr 500 ------- 0 1.0 3.0 47 48
- 0.247 1 2 cbr 500 ------- 0 1.0 3.0 47 48
+ 0.248 1 2 cbr 500 ------- 0 1.0 3.0 48 49
- 0.248 1 2 cbr 500 ------- 0 1.0 3.0 48 49
+ 0.249 1 2 cbr 500 ------- 0 1.0 3.0 49 50
- 0.249 1 2 cbr 500 ------- 0 1.0 3.0 49 50
+ 0.25 1 2 cbr 500 ------- 0 1.0 3.0 50 51
- 0.25 1 2 cbr 500 ------- 0 1.0 3.0 50 51
+ 0.251 1 2 cbr 500 ------- 0 1.0 3.0 51 52
- 0.251 1 2 cbr 500 ------- 0 1.0 3.0 51 52
+ 0.252 1 2 cbr 500 ------- 0 1.0 3.0 52 53
- 0.252 1 2 cbr 500 ------- 0 1.0 3.0 52 53
+ 0.253 1 2 cbr 500 ------- 0 1.0 3.0 53 54
- 0.253 1 2 cbr 500 ------- 0 1.0 3.0 53 54
+ 0.254 1 2 cbr 500 ------- 0 1.0 3.0 54 55
- 0.254 1 2 cbr 500 ------- 0 1.0 3.0 54 55
+ 0.255 1 2 cbr 500 ------- 0 1.0 3.0 55 56
- 0.255 1 2 cbr 500 ------- 0 1.0 3.0 55 56
+ 0.256 1 2 cbr 500 ------- 0 1.0 3.0 56 57
- 0.256 1 2 cbr 500 ------- 0 1.0 3.0 56 57
+ 0.257 1 2 cbr 500 ------- 0 1.0 3.0 57 58
- 0.257 1 2 cbr 500 ------- 0 1.0 3.0 57 58
+ 0.258 1 2 cbr 500 ------- 0 1.0 3.0 58 59
- 0.258 1 2 cbr 500 ------- 0 1.0 3.0 58 59
+ 0.259 1 2 cbr 500 ------- 0 1.0 3.0 59 60
- 0.259 1 2 cbr 500 ------- 0 1.0 3.0 59 60
+ 0.26 1 2 cbr 500 ------- 0 1.0 3.0 60 61
- 0.26 1 2 cbr 500 ------- 0 1.0 3.0 60 61
+ 0.261 1 2 cbr 500 ------- 0 1.0 3.0 61 62
- 0.261 1 2 cbr 500 ------- 0 1.0 3.0 61 62
+ 0.262 1 2 cbr 500 ------- 0 1.0 3.0 62 63
- 0.262 1 2 cbr 500 ------- 0 1.0 3.0 62 63
+ 0.263 1 2 cbr 500 ------- 0 1.0 3.0 63 64
- 0.263 1 2 cbr 500 ------- 0 1.0 3.0 63 64
+ 0.264 1 2 cbr 500 ------- 0 1.0 3.0 64 65
- 0.264 1 2 cbr 500 ------- 0 1.0 3.0 64 65
+ 0.265 1 2 cbr 500 ------- 0 1.0 3.0 65 66
- 0.265 1 2 cbr 500 ------- 0 1.0 3.0 65 66
+ 0.266 1 2 cbr 500 ------- 0 1.0 3.0 66 67
- 0.266 1 2 cbr 500 ------- 0 1.0 3.0 66 67
+ 0.267 1 2 cbr 500 ------- 0 1.0 3.0 67 68
- 0.267 1 2 cbr 500 ------- 0 1.0 3.0 67 68
+ 0.268 1 2 cbr 500 ------- 0 1.0 3.0 68 69
- 0.268 1 2 cbr 500 ------- 0 1.0 3.0 68 69
+ 0.269 1 2 cbr 500 ------- 0 1.0 3.0 69 70
- 0.269 1 2 cbr 500 ------- 0 1.0 3.0 69 70
+ 0.27 1 2 cbr 500 ------- 0 1.0 3.0 70 71
- 0.27 1 2 cbr 500 ------- 0 1.0 3.0 70 71
+ 0.271 1 2 cbr 500 ------- 0 1.0 3.0 71 72
- 0.271 1 2 cbr 500 ------- 0 1.0 3.0 71 72
+ 0.272 1 2 cbr 500 ------- 0 1.0 3.0 72 73
- 0.272 1 2 cbr 500 ------- 0 1.0 3.0 72 73
+ 0.273 1 2 cbr 500 ------- 0 1.0 3.0 73 74
- 0.273 1 2 cbr 500 ------- 0 1.0 3.0 73 74
+ 0.274 1 2 cbr 500 ------- 0 1.0 3.0 74 75
- 0.274 1 2 cbr 500 ------- 0 1.0 3.0 74 75
+ 0.275 1 2 cbr 500 ------- 0 1.0 3.0 75 76
- 0.275 1 2 cbr 500 ------- 0 1.0 3.0 75 76
+ 0.276 1 2 cbr 500 ------- 0 1.0 3.0 76 77
- 0.276 1 2 cbr 500 ------- 0 1.0 3.0 76 77
+ 0.277 1 2 cbr 500 ------- 0 1.0 3.0 77 78
- 0.277 1 2 cbr 500 ------- 0 1.0 3.0 77 78
+ 0.278 1 2 cbr 500 ------- 0 1.0 3.0 78 79
- 0.278 1 2 cbr 500 ------- 0 1.0 3.0 78 79
+ 0.279 1 2 cbr 500 ------- 0 1.0 3.0 79 80
- 0.279 1 2 cbr 500 ------- 0 1.0 3.0 79 80
+ 0.28 1 2 cbr 500 ------- 0 1.0 3.0 80 81
- 0.28 1 2 cbr 500 ------- 0 1.0 3.0 80 81
+ 0.281 1 2 cbr 500 ------- 0 1.0 3.0 81 82
- 0.281 1 2 cbr 500 ------- 0 1.0 3.0 81 82
+ 0.282 1 2 cbr 500 ------- 0 1.0 3.0 82 83
- 0.282 1 2 cbr 500 ------- 0 1.0 3.0 82 83
+ 0.283 1 2 cbr 500 ------- 0 1.0 3.0 83 84
- 0.283 1 2 cbr 500 ------- 0 1.0 3.0 83 84
+ 0.284 1 2 cbr 500 ------- 0 1.0 3.0 84 85
- 0.284 1 2 cbr 500 ------- 0 1.0 3.0 84 85
+ 0.285 1 2 cbr 500 ------- 0 1.0 3.0 85 86
- 0.285 1 2 cbr 500 ------- 0 1.0 3.0 85 86
+ 0.286 1 2 cbr 500 ------- 0 1.0 3.0 86 87
- 0.286 1 2 cbr 500 ------- 0 1.0 3.0 86 87
+ 0.287 1 2 cbr 500 ------- 0 1.0 3.0 87 88
- 0.287 1 2 cbr 500 ------- 0 1.0 3.0 87 88
+ 0.288 1 2 cbr 500 ------- 0 1.0 3.0 88 89
- 0.288 1 2 cbr 500 ------- 0 1.0 3.0 88 89
+ 0.289 1 2 cbr 500 ------- 0 1.0 3.0 89 90
- 0.289 1 2 cbr 500 ------- 0 1.0 3.0 89 90
+ 0.29 1 2 cbr 500 ------- 0 1.0 3.0 90 91
- 0.29 1 2 cbr 500 ------- 0 1.0 3.0 90 91
+ 0.291 1 2 cbr 500 ------- 0 1.0 3.0 91 92
- 0.291 1 2 cbr 500 ------- 0 1.0 3.0 91 92
+ 0.292 1 2 cbr 500 ------- 0 1.0 3.0 92 93
- 0.292 1 2 cbr 500 ------- 0 1.0 3.0 92 93
+ 0.293 1 2 cbr 500 ------- 0 1.0 3.0 93 94
- 0.293 1 2 cbr 500 ------- 0 1.0 3.0 93 94
+ 0.294 1 2 cbr 500 ------- 0 1.0 3.0 94 95
- 0.294 1 2 cbr 500 ------- 0 1.0 3.0 94 95
+ 0.295 1 2 cbr 500 ------- 0 1.0 3.0 95 96
- 0.295 1 2 cbr 500 ------- 0 1.0 3.0 95 96
+ 0.296 1 2 cbr 500 ------- 0 1.0 3.0 96 97
- 0.296 1 2 cbr 500 ------- 0 1.0 3.0 96 97
+ 0.297 1 2 cbr 500 ------- 0 1.0 3.0 97 98
- 0.297 1 2 cbr 500 ------- 0 1.0 3.0 97 98
+ 0.298 1 2 cbr 500 ------- 0 1.0 3.0 98 99
- 0.298 1 2 cbr 500 ------- 0 1.0 3.0 98 99
+ 0.299 1 2 cbr 500 ------- 0 1.0 3.0 99 100
- 0.299 1 2 cbr 500 ------- 0 1.0 3.0 99 100
+ 0.3 1 2 cbr 500 ------- 0 1.0 3.0 100 101
- 0.3 1 2 cbr 500 ------- 0 1.0 3.0 100 101
r 0.300012 2 3 tcp 40 ------- 0 0.0 3.1 0 0
+ 0.300012 3 2 ack 40 ------- 0 3.1 0.0 0 102
- 0.300012 3 2 ack 40 ------- 0 3.1 0.0 0 102
r 0.30005 1 2 cbr 500 ------- 0 1.0 3.0 0 1
+ 0.30005 2 3 cbr 500 ------- 0 1.0 3.0 0 1
- 0.30005 2 3 cbr 500 ------- 0 1.0 3.0 0 1
+ 0.301 1 2 cbr 500 ------- 0 1.0 3.0 101 103
- 0.301 1 2 cbr 500 ------- 0 1.0 3.0 101 103
r 0.30105 1 2 cbr 500 ------- 0 1.0 3.0 1 2
+ 0.30105 2 3 cbr 500 ------- 0 1.0 3.0 1 2
- 0.30105 2 3 cbr 500 ------- 0 1.0 3.0 1 2
+ 0.302 1 2 cbr 500 ------- 0 1.0 3.0 102 104
- 0.302 1 2 cbr 500 ------- 0 1.0 3.0 102 104
r 0.30205 1 2 cbr 500 ------- 0 1.0 3.0 2 3
+ 0.30205 2 3 cbr 500 ------- 0 1.0 3.0 2 3
- 0.30205 2 3 cbr 500 ------- 0 1.0 3.0 2 3
+ 0.303 1 2 cbr 500 ------- 0 1.0 3.0 103 105
- 0.303 1 2 cbr 500 ------- 0 1.0 3.0 103 105
r 0.30305 1 2 cbr 500 ------- 0 1.0 3.0 3 4
+ 0.30305 2 3 cbr 500 ------- 0 1.0 3.0 3 4
- 0.30305 2 3 cbr 500 ------- 0 1.0 3.0 3 4
+ 0.304 1 2 cbr 500 ------- 0 1.0 3.0 104 106
- 0.304 1 2 cbr 500 ------- 0 1.0 3.0 104 106
r 0.30405 1 2 cbr 500 ------- 0 1.0 3.0 4 5
+ 0.30405 2 3 cbr 500 ------- 0 1.0 3.0 4 5
- 0.30405 2 3 cbr 500 ------- 0 1.0 3.0 4 5
+ 0.305 1 2 cbr 500 ------- 0 1.0 3.0 105 107
- 0.305 1 2 cbr 500 ------- 0 1.0 3.0 105 107
r 0.30505 1 2 cbr 500 ------- 0 1.0 3.0 5 6
+ 0.30505 2 3 cbr 500 ------- 0 1.0 3.0 5 6
- 0.30505 2 3 cbr 500 ------- 0 1.0 3.0 5 6
+ 0.306 1 2 cbr 500 ------- 0 1.0 3.0 106 108
- 0.306 1 2 cbr 500 ------- 0 1.0 3.0 106 108
r 0.30605 1 2 cbr 500 ------- 0 1.0 3.0 6 7
+ 0.30605 2 3 cbr 500 ------- 0 1.0 3.0 6 7
- 0.30605 2 3 cbr 500 ------- 0 1.0 3.0 6 7
+ 0.307 1 2 cbr 500 ------- 0 1.0 3.0 107 109
- 0.307 1 2 cbr 500 ------- 0 1.0 3.0 107 109
r 0.30705 1 2 cbr 500 ------- 0 1.0 3.0 7 8
+ 0.30705 2 3 cbr 500 ------- 0 1.0 3.0 7 8
- 0.30705 2 3 cbr 500 ------- 0 1.0 3.0 7 8
+ 0.308 1 2 cbr 500 ------- 0 1.0 3.0 108 110
- 0.308 1 2 cbr 500 ------- 0 1.0 3.0 108 110
r 0.30805 1 2 cbr 500 ------- 0 1.0 3.0 8 9
+ 0.30805 2 3 cbr 500 ------- 0 1.0 3.0 8 9
- 0.30805 2 3 cbr 500 ------- 0 1.0 3.0 8 9
+ 0.309 1 2 cbr 500 ------- 0 1.0 3.0 109 111
- 0.309 1 2 cbr 500 ------- 0 1.0 3.0 109 111
r 0.30905 1 2 cbr 500 ------- 0 1.0 3.0 9 10
+ 0.30905 2 3 cbr 500 ------- 0 1.0 3.0 9 10
- 0.30905 2 3 cbr 500 ------- 0 1.0 3.0 9 10
+ 0.31 1 2 cbr 500 ------- 0 1.0 3.0 110 112
- 0.31 1 2 cbr 500 ------- 0 1.0 3.0 110 112
r 0.31005 1 2 cbr 500 ------- 0 1.0 3.0 10 11
+ 0.31005 2 3 cbr 500 ------- 0 1.0 3.0 10 11
- 0.31005 2 3 cbr 500 ------- 0 1.0 3.0 10 11
+ 0.311 1 2 cbr 500 ------- 0 1.0 3.0 111 113
- 0.311 1 2 cbr 500 ------- 0 1.0 3.0 111 113
r 0.31105 1 2 cbr 500 ------- 0 1.0 3.0 11 12
+ 0.31105 2 3 cbr 500 ------- 0 1.0 3.0 11 12
- 0.31105 2 3 cbr 500 ------- 0 1.0 3.0 11 12
+ 0.312 1 2 cbr 500 ------- 0 1.0 3.0 112 114
- 0.312 1 2 cbr 500 ------- 0 1.0 3.0 112 114
r 0.31205 1 2 cbr 500 ------- 0 1.0 3.0 12 13
+ 0.31205 2 3 cbr 500 ------- 0 1.0 3.0 12 13
- 0.31205 2 3 cbr 500 ------- 0 1.0 3.0 12 13
+ 0.313 1 2 cbr 500 ------- 0 1.0 3.0 113 115
- 0.313 1 2 cbr 500 ------- 0 1.0 3.0 113 115
r 0.31305 1 2 cbr 500 ------- 0 1.0 3.0 13 14
+ 0.31305 2 3 cbr 500 ------- 0 1.0 3.0 13 14
- 0.31305 2 3 cbr 500 ------- 0 1.0 3.0 13 14
+ 0.314 1 2 cbr 500 ------- 0 1.0 3.0 114 116
- 0.314 1 2 cbr 500 ------- 0 1.0 3.0 114 116
r 0.31405 1 2 cbr 500 ------- 0 1.0 3.0 14 15
+ 0.31405 2 3 cbr 500 ------- 0 1.0 3.0 14 15
- 0.31405 2 3 cbr 500 ------- 0 1.0 3.0 14 15
+ 0.315 1 2 cbr 500 ------- 0 1.0 3.0 115 117
- 0.315 1 2 cbr 500 ------- 0 1.0 3.0 115 117
r 0.31505 1 2 cbr 500 ------- 0 1.0 3.0 15 16
+ 0.31505 2 3 cbr 500 ------- 0 1.0 3.0 15 16
- 0.31505 2 3 cbr 500 ------- 0 1.0 3.0 15 16
+ 0.316 1 2 cbr 500 ------- 0 1.0 3.0 116 118
- 0.316 1 2 cbr 500 ------- 0 1.0 3.0 116 118
r 0.31605 1 2 cbr 500 ------- 0 1.0 3.0 16 17
+ 0.31605 2 3 cbr 500 ------- 0 1.0 3.0 16 17
- 0.31605 2 3 cbr 500 ------- 0 1.0 3.0 16 17
+ 0.317 1 2 cbr 500 ------- 0 1.0 3.0 117 119
- 0.317 1 2 cbr 500 ------- 0 1.0 3.0 117 119
r 0.31705 1 2 cbr 500 ------- 0 1.0 3.0 17 18
+ 0.31705 2 3 cbr 500 ------- 0 1.0 3.0 17 18
- 0.31705 2 3 cbr 500 ------- 0 1.0 3.0 17 18
+ 0.318 1 2 cbr 500 ------- 0 1.0 3.0 118 120
- 0.318 1 2 cbr 500 ------- 0 1.0 3.0 118 120
r 0.31805 1 2 cbr 500 ------- 0 1.0 3.0 18 19
+ 0.31805 2 3 cbr 500 ------- 0 1.0 3.0 18 19
- 0.31805 2 3 cbr 500 ------- 0 1.0 3.0 18 19
+ 0.319 1 2 cbr 500 ------- 0 1.0 3.0 119 121
- 0.319 1 2 cbr 500 ------- 0 1.0 3.0 119 121
r 0.31905 1 2 cbr 500 ------- 0 1.0 3.0 19 20
+ 0.31905 2 3 cbr 500 ------- 0 1.0 3.0 19 20
- 0.31905 2 3 cbr 500 ------- 0 1.0 3.0 19 20
+ 0.32 1 2 cbr 500 ------- 0 1.0 3.0 120 122
- 0.32 1 2 cbr 500 ------- 0 1.0 3.0 120 122
r 0.32005 1 2 cbr 500 ------- 0 1.0 3.0 20 21
+ 0.32005 2 3 cbr 500 ------- 0 1.0 3.0 20 21
- 0.32005 2 3 cbr 500 ------- 0 1.0 3.0 20 21
+ 0.321 1 2 cbr 500 ------- 0 1.0 3.0 121 123
- 0.321 1 2 cbr 500 ------- 0 1.0 3.0 121 123
r 0.32105 1 2 cbr 500 ------- 0 1.0 3.0 21 22
+ 0.32105 2 3 cbr 500 ------- 0 1.0 3.0 21 22
- 0.32105 2 3 cbr 500 ------- 0 1.0 3.0 21 22
+ 0.322 1 2 cbr 500 ------- 0 1.0 3.0 122 124
- 0.322 1 2 cbr 500 ------- 0 1.0 3.0 122 124
r 0.32205 1 2 cbr 500 ------- 0 1.0 3.0 22 23
+ 0.32205 2 3 cbr 500 ------- 0 1.0 3.0 22 23
- 0.32205 2 3 cbr 500 ------- 0 1.0 3.0 22 23
+ 0.323 1 2 cbr 500 ------- 0 1.0 3.0 123 125
- 0.323 1 2 cbr 500 ------- 0 1.0 3.0 123 125
r 0.32305 1 2 cbr 500 ------- 0 1.0 3.0 23 24
+ 0.32305 2 3 cbr 500 ------- 0 1.0 3.0 23 24
- 0.32305 2 3 cbr 500 ------- 0 1.0 3.0 23 24
+ 0.324 1 2 cbr 500 ------- 0 1.0 3.0 124 126
- 0.324 1 2 cbr 500 ------- 0 1.0 3.0 124 126
r 0.32405 1 2 cbr 500 ------- 0 1.0 3.0 24 25
+ 0.32405 2 3 cbr 500 ------- 0 1.0 3.0 24 25
- 0.32405 2 3 cbr 500 ------- 0 1.0 3.0 24 25
+ 0.325 1 2 cbr 500 ------- 0 1.0 3.0 125 127
- 0.325 1 2 cbr 500 ------- 0 1.0 3.0 125 127
r 0.32505 1 2 cbr 500 ------- 0 1.0 3.0 25 26
+ 0.32505 2 3 cbr 500 ------- 0 1.0 3.0 25 26
- 0.32505 2 3 cbr 500 ------- 0 1.0 3.0 25 26
+ 0.326 1 2 cbr 500 ------- 0 1.0 3.0 126 128
- 0.326 1 2 cbr 500 ------- 0 1.0 3.0 126 128
r 0.32605 1 2 cbr 500 ------- 0 1.0 3.0 26 27
+ 0.32605 2 3 cbr 500 ------- 0 1.0 3.0 26 27
- 0.32605 2 3 cbr 500 ------- 0 1.0 3.0 26 27
+ 0.327 1 2 cbr 500 ------- 0 1.0 3.0 127 129
- 0.327 1 2 cbr 500 ------- 0 1.0 3.0 127 129
r 0.32705 1 2 cbr 500 ------- 0 1.0 3.0 27 28
+ 0.32705 2 3 cbr 500 ------- 0 1.0 3.0 27 28
- 0.32705 2 3 cbr 500 ------- 0 1.0 3.0 27 28
+ 0.328 1 2 cbr 500 ------- 0 1.0 3.0 128 130
- 0.328 1 2 cbr 500 ------- 0 1.0 3.0 128 130
r 0.32805 1 2 cbr 500 ------- 0 1.0 3.0 28 29
+ 0.32805 2 3 cbr 500 ------- 0 1.0 3.0 28 29
- 0.32805 2 3 cbr 500 ------- 0 1.0 3.0 28 29
+ 0.329 1 2 cbr 500 ------- 0 1.0 3.0 129 131
- 0.329 1 2 cbr 500 ------- 0 1.0 3.0 129 131
r 0.32905 1 2 cbr 500 ------- 0 1.0 3.0 29 30
+ 0.32905 2 3 cbr 500 ------- 0 1.0 3.0 29 30
- 0.32905 2 3 cbr 500 ------- 0 1.0 3.0 29 30
+ 0.33 1 2 cbr 500 ------- 0 1.0 3.0 130 132
- 0.33 1 2 cbr 500 ------- 0 1.0 3.0 130 132
r 0.33005 1 2 cbr 500 ------- 0 1.0 3.0 30 31
+ 0.33005 2 3 cbr 500 ------- 0 1.0 3.0 30 31
- 0.33005 2 3 cbr 500 ------- 0 1.0 3.0 30 31
+ 0.331 1 2 cbr 500 ------- 0 1.0 3.0 131 133
- 0.331 1 2 cbr 500 ------- 0 1.0 3.0 131 133
r 0.33105 1 2 cbr 500 ------- 0 1.0 3.0 31 32
+ 0.33105 2 3 cbr 500 ------- 0 1.0 3.0 31 32
- 0.33105 2 3 cbr 500 ------- 0 1.0 3.0 31 32
+ 0.332 1 2 cbr 500 ------- 0 1.0 3.0 132 134
- 0.332 1 2 cbr 500 ------- 0 1.0 3.0 132 134
r 0.33205 1 2 cbr 500 ------- 0 1.0 3.0 32 33
+ 0.33205 2 3 cbr 500 ------- 0 1.0 3.0 32 33
- 0.33205 2 3 cbr 500 ------- 0 1.0 3.0 32 33
+ 0.333 1 2 cbr 500 ------- 0 1.0 3.0 133 135
- 0.333 1 2 cbr 500 ------- 0 1.0 3.0 133 135
r 0.33305 1 2 cbr 500 ------- 0 1.0 3.0 33 34
+ 0.33305 2 3 cbr 500 ------- 0 1.0 3.0 33 34
- 0.33305 2 3 cbr 500 ------- 0 1.0 3.0 33 34
+ 0.334 1 2 cbr 500 ------- 0 1.0 3.0 134 136
- 0.334 1 2 cbr 500 ------- 0 1.0 3.0 134 136
r 0.33405 1 2 cbr 500 ------- 0 1.0 3.0 34 35
+ 0.33405 2 3 cbr 500 ------- 0 1.0 3.0 34 35
- 0.33405 2 3 cbr 500 ------- 0 1.0 3.0 34 35
+ 0.335 1 2 cbr 500 ------- 0 1.0 3.0 135 137
- 0.335 1 2 cbr 500 ------- 0 1.0 3.0 135 137
r 0.33505 1 2 cbr 500 ------- 0 1.0 3.0 35 36
+ 0.33505 2 3 cbr 500 ------- 0 1.0 3.0 35 36
- 0.33505 2 3 cbr 500 ------- 0 1.0 3.0 35 36
+ 0.336 1 2 cbr 500 ------- 0 1.0 3.0 136 138
- 0.336 1 2 cbr 500 ------- 0 1.0 3.0 136 138
r 0.33605 1 2 cbr 500 ------- 0 1.0 3.0 36 37
+ 0.33605 2 3 cbr 500 ------- 0 1.0 3.0 36 37
- 0.33605 2 3 cbr 500 ------- 0 1.0 3.0 36 37
+ 0.337 1 2 cbr 500 ------- 0 1.0 3.0 137 139
- 0.337 1 2 cbr 500 ------- 0 1.0 3.0 137 139
r 0.33705 1 2 cbr 500 ------- 0 1.0 3.0 37 38
+ 0.33705 2 3 cbr 500 ------- 0 1.0 3.0 37 38
- 0.33705 2 3 cbr 500 ------- 0 1.0 3.0 37 38
+ 0.338 1 2 cbr 500 ------- 0 1.0 3.0 138 140
- 0.338 1 2 cbr 500 ------- 0 1.0 3.0 138 140
r 0.33805 1 2 cbr 500 ------- 0 1.0 3.0 38 39
+ 0.33805 2 3 cbr 500 ------- 0 1.0 3.0 38 39
- 0.33805 2 3 cbr 500 ------- 0 1.0 3.0 38 39
+ 0.339 1 2 cbr 500 ------- 0 1.0 3.0 139 141
- 0.339 1 2 cbr 500 ------- 0 1.0 3.0 139 141
r 0.33905 1 2 cbr 500 ------- 0 1.0 3.0 39 40
+ 0.33905 2 3 cbr 500 ------- 0 1.0 3.0 39 40
- 0.33905 2 3 cbr 500 ------- 0 1.0 3.0 39 40
+ 0.34 1 2 cbr 500 ------- 0 1.0 3.0 140 142
- 0.34 1 2 cbr 500 ------- 0 1.0 3.0 140 142
r 0.34005 1 2 cbr 500 ------- 0 1.0 3.0 40 41
+ 0.34005 2 3 cbr 500 ------- 0 1.0 3.0 40 41
- 0.34005 2 3 cbr 500 ------- 0 1.0 3.0 40 41
+ 0.341 1 2 cbr 500 ------- 0 1.0 3.0 141 143
- 0.341 1 2 cbr 500 ------- 0 1.0 3.0 141 143
r 0.34105 1 2 cbr 500 ------- 0 1.0 3.0 41 42
+ 0.34105 2 3 cbr 500 ------- 0 1.0 3.0 41 42
- 0.34105 2 3 cbr 500 ------- 0 1.0 3.0 41 42
+ 0.342 1 2 cbr 500 ------- 0 1.0 3.0 142 144
- 0.342 1 2 cbr 500 ------- 0 1.0 3.0 142 144
r 0.34205 1 2 cbr 500 ------- 0 1.0 3.0 42 43
+ 0.34205 2 3 cbr 500 ------- 0 1.0 3.0 42 43
- 0.34205 2 3 cbr 500 ------- 0 1.0 3.0 42 43
+ 0.343 1 2 cbr 500 ------- 0 1.0 3.0 143 145
- 0.343 1 2 cbr 500 ------- 0 1.0 3.0 143 145
r 0.34305 1 2 cbr 500 ------- 0 1.0 3.0 43 44
+ 0.34305 2 3 cbr 500 ------- 0 1.0 3.0 43 44
- 0.34305 2 3 cbr 500 ------- 0 1.0 3.0 43 44
+ 0.344 1 2 cbr 500 ------- 0 1.0 3.0 144 146
- 0.344 1 2 cbr 500 ------- 0 1.0 3.0 144 146
r 0.34405 1 2 cbr 500 ------- 0 1.0 3.0 44 45
+ 0.34405 2 3 cbr 500 ------- 0 1.0 3.0 44 45
- 0.34405 2 3 cbr 500 ------- 0 1.0 3.0 44 45
+ 0.345 1 2 cbr 500 ------- 0 1.0 3.0 145 147
- 0.345 1 2 cbr 500 ------- 0 1.0 3.0 145 147
r 0.34505 1 2 cbr 500 ------- 0 1.0 3.0 45 46
+ 0.34505 2 3 cbr 500 ------- 0 1.0 3.0 45 46
- 0.34505 2 3 cbr 500 ------- 0 1.0 3.0 45 46
+ 0.346 1 2 cbr 500 ------- 0 1.0 3.0 146 148
- 0.346 1 2 cbr 500 ------- 0 1.0 3.0 146 148
r 0.34605 1 2 cbr 500 ------- 0 1.0 3.0 46 47
+ 0.34605 2 3 cbr 500 ------- 0 1.0 3.0 46 47
- 0.34605 2 3 cbr 500 ------- 0 1.0 3.0 46 47
+ 0.347 1 2 cbr 500 ------- 0 1.0 3.0 147 149
- 0.347 1 2 cbr 500 ------- 0 1.0 3.0 147 149
r 0.34705 1 2 cbr 500 ------- 0 1.0 3.0 47 48
+ 0.34705 2 3 cbr 500 ------- 0 1.0 3.0 47 48
- 0.34705 2 3 cbr 500 ------- 0 1.0 3.0 47 48
+ 0.348 1 2 cbr 500 ------- 0 1.0 3.0 148 150
- 0.348 1 2 cbr 500 ------- 0 1.0 3.0 148 150
r 0.34805 1 2 cbr 500 ------- 0 1.0 3.0 48 49
+ 0.34805 2 3 cbr 500 ------- 0 1.0 3.0 48 49
- 0.34805 2 3 cbr 500 ------- 0 1.0 3.0 48 49
+ 0.349 1 2 cbr 500 ------- 0 1.0 3.0 149 151
- 0.349 1 2 cbr 500 ------- 0 1.0 3.0 149 151
r 0.34905 1 2 cbr 500 ------- 0 1.0 3.0 49 50
+ 0.34905 2 3 cbr 500 ------- 0 1.0 3.0 49 50
- 0.34905 2 3 cbr 500 ------- 0 1.0 3.0 49 50
+ 0.35 1 2 cbr 500 ------- 0 1.0 3.0 150 152
- 0.35 1 2 cbr 500 ------- 0 1.0 3.0 150 152
r 0.35005 1 2 cbr 500 ------- 0 1.0 3.0 50 51
+ 0.35005 2 3 cbr 500 ------- 0 1.0 3.0 50 51
- 0.35005 2 3 cbr 500 ------- 0 1.0 3.0 50 51
+ 0.351 1 2 cbr 500 ------- 0 1.0 3.0 151 153
- 0.351 1 2 cbr 500 ------- 0 1.0 3.0 151 153
r 0.35105 1 2 cbr 500 ------- 0 1.0 3.0 51 52
+ 0.35105 2 3 cbr 500 ------- 0 1.0 3.0 51 52
- 0.35105 2 3 cbr 500 ------- 0 1.0 3.0 51 52
+ 0.352 1 2 cbr 500 ------- 0 1.0 3.0 152 154
- 0.352 1 2 cbr 500 ------- 0 1.0 3.0 152 154
r 0.35205 1 2 cbr 500 ------- 0 1.0 3.0 52 53
+ 0.35205 2 3 cbr 500 ------- 0 1.0 3.0 52 53
- 0.35205 2 3 cbr 500 ------- 0 1.0 3.0 52 53
+ 0.353 1 2 cbr 500 ------- 0 1.0 3.0 153 155
- 0.353 1 2 cbr 500 ------- 0 1.0 3.0 153 155
r 0.35305 1 2 cbr 500 ------- 0 1.0 3.0 53 54
+ 0.35305 2 3 cbr 500 ------- 0 1.0 3.0 53 54
- 0.35305 2 3 cbr 500 ------- 0 1.0 3.0 53 54
+ 0.354 1 2 cbr 500 ------- 0 1.0 3.0 154 156
- 0.354 1 2 cbr 500 ------- 0 1.0 3.0 154 156
r 0.35405 1 2 cbr 500 ------- 0 1.0 3.0 54 55
+ 0.35405 2 3 cbr 500 ------- 0 1.0 3.0 54 55
- 0.35405 2 3 cbr 500 ------- 0 1.0 3.0 54 55
+ 0.355 1 2 cbr 500 ------- 0 1.0 3.0 155 157
- 0.355 1 2 cbr 500 ------- 0 1.0 3.0 155 157
r 0.35505 1 2 cbr 500 ------- 0 1.0 3.0 55 56
+ 0.35505 2 3 cbr 500 ------- 0 1.0 3.0 55 56
- 0.35505 2 3 cbr 500 ------- 0 1.0 3.0 55 56
+ 0.356 1 2 cbr 500 ------- 0 1.0 3.0 156 158
- 0.356 1 2 cbr 500 ------- 0 1.0 3.0 156 158
r 0.35605 1 2 cbr 500 ------- 0 1.0 3.0 56 57
+ 0.35605 2 3 cbr 500 ------- 0 1.0 3.0 56 57
- 0.35605 2 3 cbr 500 ------- 0 1.0 3.0 56 57
+ 0.357 1 2 cbr 500 ------- 0 1.0 3.0 157 159
- 0.357 1 2 cbr 500 ------- 0 1.0 3.0 157 159
r 0.35705 1 2 cbr 500 ------- 0 1.0 3.0 57 58
+ 0.35705 2 3 cbr 500 ------- 0 1.0 3.0 57 58
- 0.35705 2 3 cbr 500 ------- 0 1.0 3.0 57 58
+ 0.358 1 2 cbr 500 ------- 0 1.0 3.0 158 160
- 0.358 1 2 cbr 500 ------- 0 1.0 3.0 158 160
r 0.35805 1 2 cbr 500 ------- 0 1.0 3.0 58 59
+ 0.35805 2 3 cbr 500 ------- 0 1.0 3.0 58 59
- 0.35805 2 3 cbr 500 ------- 0 1.0 3.0 58 59
+ 0.359 1 2 cbr 500 ------- 0 1.0 3.0 159 161
- 0.359 1 2 cbr 500 ------- 0 1.0 3.0 159 161
r 0.35905 1 2 cbr 500 ------- 0 1.0 3.0 59 60
+ 0.35905 2 3 cbr 500 ------- 0 1.0 3.0 59 60
- 0.35905 2 3 cbr 500 ------- 0 1.0 3.0 59 60
+ 0.36 1 2 cbr 500 ------- 0 1.0 3.0 160 162
- 0.36 1 2 cbr 500 ------- 0 1.0 3.0 160 162
r 0.36005 1 2 cbr 500 ------- 0 1.0 3.0 60 61
+ 0.36005 2 3 cbr 500 ------- 0 1.0 3.0 60 61
- 0.36005 2 3 cbr 500 ------- 0 1.0 3.0 60 61
+ 0.361 1 2 cbr 500 ------- 0 1.0 3.0 161 163
- 0.361 1 2 cbr 500 ------- 0 1.0 3.0 161 163
r 0.36105 1 2 cbr 500 ------- 0 1.0 3.0 61 62
+ 0.36105 2 3 cbr 500 ------- 0 1.0 3.0 61 62
- 0.36105 2 3 cbr 500 ------- 0 1.0 3.0 61 62
+ 0.362 1 2 cbr 500 ------- 0 1.0 3.0 162 164
- 0.362 1 2 cbr 500 ------- 0 1.0 3.0 162 164
r 0.36205 1 2 cbr 500 ------- 0 1.0 3.0 62 63
+ 0.36205 2 3 cbr 500 ------- 0 1.0 3.0 62 63
- 0.36205 2 3 cbr 500 ------- 0 1.0 3.0 62 63
+ 0.363 1 2 cbr 500 ------- 0 1.0 3.0 163 165
- 0.363 1 2 cbr 500 ------- 0 1.0 3.0 163 165
r 0.36305 1 2 cbr 500 ------- 0 1.0 3.0 63 64
+ 0.36305 2 3 cbr 500 ------- 0 1.0 3.0 63 64
- 0.36305 2 3 cbr 500 ------- 0 1.0 3.0 63 64
+ 0.364 1 2 cbr 500 ------- 0 1.0 3.0 164 166
- 0.364 1 2 cbr 500 ------- 0 1.0 3.0 164 166
r 0.36405 1 2 cbr 500 ------- 0 1.0 3.0 64 65
+ 0.36405 2 3 cbr 500 ------- 0 1.0 3.0 64 65
- 0.36405 2 3 cbr 500 ------- 0 1.0 3.0 64 65
+ 0.365 1 2 cbr 500 ------- 0 1.0 3.0 165 167
- 0.365 1 2 cbr 500 ------- 0 1.0 3.0 165 167
r 0.36505 1 2 cbr 500 ------- 0 1.0 3.0 65 66
+ 0.36505 2 3 cbr 500 ------- 0 1.0 3.0 65 66
- 0.36505 2 3 cbr 500 ------- 0 1.0 3.0 65 66
+ 0.366 1 2 cbr 500 ------- 0 1.0 3.0 166 168
- 0.366 1 2 cbr 500 ------- 0 1.0 3.0 166 168
r 0.36605 1 2 cbr 500 ------- 0 1.0 3.0 66 67
+ 0.36605 2 3 cbr 500 ------- 0 1.0 3.0 66 67
- 0.36605 2 3 cbr 500 ------- 0 1.0 3.0 66 67
+ 0.367 1 2 cbr 500 ------- 0 1.0 3.0 167 169
- 0.367 1 2 cbr 500 ------- 0 1.0 3.0 167 169
r 0.36705 1 2 cbr 500 ------- 0 1.0 3.0 67 68
+ 0.36705 2 3 cbr 500 ------- 0 1.0 3.0 67 68
- 0.36705 2 3 cbr 500 ------- 0 1.0 3.0 67 68
+ 0.368 1 2 cbr 500 ------- 0 1.0 3.0 168 170
- 0.368 1 2 cbr 500 ------- 0 1.0 3.0 168 170
r 0.36805 1 2 cbr 500 ------- 0 1.0 3.0 68 69
+ 0.36805 2 3 cbr 500 ------- 0 1.0 3.0 68 69
- 0.36805 2 3 cbr 500 ------- 0 1.0 3.0 68 69
+ 0.369 1 2 cbr 500 ------- 0 1.0 3.0 169 171
- 0.369 1 2 cbr 500 ------- 0 1.0 3.0 169 171
r 0.36905 1 2 cbr 500 ------- 0 1.0 3.0 69 70
+ 0.36905 2 3 cbr 500 ------- 0 1.0 3.0 69 70
- 0.36905 2 3 cbr 500 ------- 0 1.0 3.0 69 70
+ 0.37 1 2 cbr 500 ------- 0 1.0 3.0 170 172
- 0.37 1 2 cbr 500 ------- 0 1.0 3.0 170 172
r 0.37005 1 2 cbr 500 ------- 0 1.0 3.0 70 71
+ 0.37005 2 3 cbr 500 ------- 0 1.0 3.0 70 71
- 0.37005 2 3 cbr 500 ------- 0 1.0 3.0 70 71
+ 0.371 1 2 cbr 500 ------- 0 1.0 3.0 171 173
- 0.371 1 2 cbr 500 ------- 0 1.0 3.0 171 173
r 0.37105 1 2 cbr 500 ------- 0 1.0 3.0 71 72
+ 0.37105 2 3 cbr 500 ------- 0 1.0 3.0 71 72
- 0.37105 2 3 cbr 500 ------- 0 1.0 3.0 71 72
+ 0.372 1 2 cbr 500 ------- 0 1.0 3.0 172 174
- 0.372 1 2 cbr 500 ------- 0 1.0 3.0 172 174
r 0.37205 1 2 cbr 500 ------- 0 1.0 3.0 72 73
+ 0.37205 2 3 cbr 500 ------- 0 1.0 3.0 72 73
- 0.37205 2 3 cbr 500 ------- 0 1.0 3.0 72 73
+ 0.373 1 2 cbr 500 ------- 0 1.0 3.0 173 175
- 0.373 1 2 cbr 500 ------- 0 1.0 3.0 173 175
r 0.37305 1 2 cbr 500 ------- 0 1.0 3.0 73 74
+ 0.37305 2 3 cbr 500 ------- 0 1.0 3.0 73 74
- 0.37305 2 3 cbr 500 ------- 0 1.0 3.0 73 74
+ 0.374 1 2 cbr 500 ------- 0 1.0 3.0 174 176
- 0.374 1 2 cbr 500 ------- 0 1.0 3.0 174 176
r 0.37405 1 2 cbr 500 ------- 0 1.0 3.0 74 75
+ 0.37405 2 3 cbr 500 ------- 0 1.0 3.0 74 75
- 0.37405 2 3 cbr 500 ------- 0 1.0 3.0 74 75
+ 0.375 1 2 cbr 500 ------- 0 1.0 3.0 175 177
- 0.375 1 2 cbr 500 ------- 0 1.0 3.0 175 177
r 0.37505 1 2 cbr 500 ------- 0 1.0 3.0 75 76
+ 0.37505 2 3 cbr 500 ------- 0 1.0 3.0 75 76
- 0.37505 2 3 cbr 500 ------- 0 1.0 3.0 75 76
+ 0.376 1 2 cbr 500 ------- 0 1.0 3.0 176 178
- 0.376 1 2 cbr 500 ------- 0 1.0 3.0 176 178
r 0.37605 1 2 cbr 500 ------- 0 1.0 3.0 76 77
+ 0.37605 2 3 cbr 500 ------- 0 1.0 3.0 76 77
- 0.37605 2 3 cbr 500 ------- 0 1.0 3.0 76 77
+ 0.377 1 2 cbr 500 ------- 0 1.0 3.0 177 179
- 0.377 1 2 cbr 500 ------- 0 1.0 3.0 177 179
r 0.37705 1 2 cbr 500 ------- 0 1.0 3.0 77 78
+ 0.37705 2 3 cbr 500 ------- 0 1.0 3.0 77 78
- 0.37705 2 3 cbr 500 ------- 0 1.0 3.0 77 78
+ 0.378 1 2 cbr 500 ------- 0 1.0 3.0 178 180
- 0.378 1 2 cbr 500 ------- 0 1.0 3.0 178 180
r 0.37805 1 2 cbr 500 ------- 0 1.0 3.0 78 79
+ 0.37805 2 3 cbr 500 ------- 0 1.0 3.0 78 79
- 0.37805 2 3 cbr 500 ------- 0 1.0 3.0 78 79
+ 0.379 1 2 cbr 500 ------- 0 1.0 3.0 179 181
- 0.379 1 2 cbr 500 ------- 0 1.0 3.0 179 181
r 0.37905 1 2 cbr 500 ------- 0 1.0 3.0 79 80
+ 0.37905 2 3 cbr 500 ------- 0 1.0 3.0 79 80
- 0.37905 2 3 cbr 500 ------- 0 1.0 3.0 79 80
+ 0.38 1 2 cbr 500 ------- 0 1.0 3.0 180 182
- 0.38 1 2 cbr 500 ------- 0 1.0 3.0 180 182
r 0.38005 1 2 cbr 500 ------- 0 1.0 3.0 80 81
+ 0.38005 2 3 cbr 500 ------- 0 1.0 3.0 80 81
- 0.38005 2 3 cbr 500 ------- 0 1.0 3.0 80 81
+ 0.381 1 2 cbr 500 ------- 0 1.0 3.0 181 183
- 0.381 1 2 cbr 500 ------- 0 1.0 3.0 181 183
r 0.38105 1 2 cbr 500 ------- 0 1.0 3.0 81 82
+ 0.38105 2 3 cbr 500 ------- 0 1.0 3.0 81 82
- 0.38105 2 3 cbr 500 ------- 0 1.0 3.0 81 82
+ 0.382 1 2 cbr 500 ------- 0 1.0 3.0 182 184
- 0.382 1 2 cbr 500 ------- 0 1.0 3.0 182 184
r 0.38205 1 2 cbr 500 ------- 0 1.0 3.0 82 83
+ 0.38205 2 3 cbr 500 ------- 0 1.0 3.0 82 83
- 0.38205 2 3 cbr 500 ------- 0 1.0 3.0 82 83
+ 0.383 1 2 cbr 500 ------- 0 1.0 3.0 183 185
- 0.383 1 2 cbr 500 ------- 0 1.0 3.0 183 185
r 0.38305 1 2 cbr 500 ------- 0 1.0 3.0 83 84
+ 0.38305 2 3 cbr 500 ------- 0 1.0 3.0 83 84
- 0.38305 2 3 cbr 500 ------- 0 1.0 3.0 83 84
+ 0.384 1 2 cbr 500 ------- 0 1.0 3.0 184 186
- 0.384 1 2 cbr 500 ------- 0 1.0 3.0 184 186
r 0.38405 1 2 cbr 500 ------- 0 1.0 3.0 84 85
+ 0.38405 2 3 cbr 500 ------- 0 1.0 3.0 84 85
- 0.38405 2 3 cbr 500 ------- 0 1.0 3.0 84 85
+ 0.385 1 2 cbr 500 ------- 0 1.0 3.0 185 187
- 0.385 1 2 cbr 500 ------- 0 1.0 3.0 185 187
r 0.38505 1 2 cbr 500 ------- 0 1.0 3.0 85 86
+ 0.38505 2 3 cbr 500 ------- 0 1.0 3.0 85 86
- 0.38505 2 3 cbr 500 ------- 0 1.0 3.0 85 86
+ 0.386 1 2 cbr 500 ------- 0 1.0 3.0 186 188
- 0.386 1 2 cbr 500 ------- 0 1.0 3.0 186 188
r 0.38605 1 2 cbr 500 ------- 0 1.0 3.0 86 87
+ 0.38605 2 3 cbr 500 ------- 0 1.0 3.0 86 87
- 0.38605 2 3 cbr 500 ------- 0 1.0 3.0 86 87
+ 0.387 1 2 cbr 500 ------- 0 1.0 3.0 187 189
- 0.387 1 2 cbr 500 ------- 0 1.0 3.0 187 189
r 0.38705 1 2 cbr 500 ------- 0 1.0 3.0 87 88
+ 0.38705 2 3 cbr 500 ------- 0 1.0 3.0 87 88
- 0.38705 2 3 cbr 500 ------- 0 1.0 3.0 87 88
+ 0.388 1 2 cbr 500 ------- 0 1.0 3.0 188 190
- 0.388 1 2 cbr 500 ------- 0 1.0 3.0 188 190
r 0.38805 1 2 cbr 500 ------- 0 1.0 3.0 88 89
+ 0.38805 2 3 cbr 500 ------- 0 1.0 3.0 88 89
- 0.38805 2 3 cbr 500 ------- 0 1.0 3.0 88 89
+ 0.389 1 2 cbr 500 ------- 0 1.0 3.0 189 191
- 0.389 1 2 cbr 500 ------- 0 1.0 3.0 189 191
r 0.38905 1 2 cbr 500 ------- 0 1.0 3.0 89 90
+ 0.38905 2 3 cbr 500 ------- 0 1.0 3.0 89 90
- 0.38905 2 3 cbr 500 ------- 0 1.0 3.0 89 90
+ 0.39 1 2 cbr 500 ------- 0 1.0 3.0 190 192
- 0.39 1 2 cbr 500 ------- 0 1.0 3.0 190 192
r 0.39005 1 2 cbr 500 ------- 0 1.0 3.0 90 91
+ 0.39005 2 3 cbr 500 ------- 0 1.0 3.0 90 91
- 0.39005 2 3 cbr 500 ------- 0 1.0 3.0 90 91
+ 0.391 1 2 cbr 500 ------- 0 1.0 3.0 191 193