V -t * -v 1.0a5 -a 0
A -t * -n 1 -p 0 -o 0x7fffffff -c 30 -a 1
A -t * -h 1 -m 1073741823 -s 0
n -t * -a 0 -s 0 -S UP -v circle -c black -i black
n -t * -a 1 -s 1 -S UP -v circle -c black -i black
n -t * -a 2 -s 2 -S UP -v circle -c black -i black
n -t * -a 3 -s 3 -S UP -v circle -c black -i black
l -t * -s 0 -d 2 -S UP -r 80000000 -D 0.10000000000000001 -c black
l -t * -s 1 -d 2 -S UP -r 80000000 -D 0.10000000000000001 -c black
l -t * -s 2 -d 3 -S UP -r 40000000 -D 0.10000000000000001 -c black
+ -t 0.1 -s 0 -d 2 -p tcp -e 40 -c 0 -i 0 -a 0 -x {0.0 3.1 0 ------- null}
- -t 0.1 -s 0 -d 2 -p tcp -e 40 -c 0 -i 0 -a 0 -x {0.0 3.1 0 ------- null}
h -t 0.1 -s 0 -d 2 -p tcp -e 40 -c 0 -i 0 -a 0 -x {0.0 3.1 -1 ------- null}
+ -t 0.2 -s 1 -d 2 -p cbr -e 500 -c 0 -i 1 -a 0 -x {1.0 3.0 0 ------- null}
- -t 0.2 -s 1 -d 2 -p cbr -e 500 -c 0 -i 1 -a 0 -x {1.0 3.0 0 ------- null}
h -t 0.2 -s 1 -d 2 -p cbr -e 500 -c 0 -i 1 -a 0 -x {1.0 3.0 -1 ------- null}
r -t 0.200004 -s 0 -d 2 -p tcp -e 40 -c 0 -i 0 -a 0 -x {0.0 3.1 0 ------- null}
+ -t 0.200004 -s 2 -d 3 -p tcp -e 40 -c 0 -i 0 -a 0 -x {0.0 3.1 0 ------- null}
- -t 0.200004 -s 2 -d 3 -p tcp -e 40 -c 0 -i 0 -a 0 -x {0.0 3.1 0 ------- null}
h -t 0.200004 -s 2 -d 3 -p tcp -e 40 -c 0 -i 0 -a 0 -x {0.0 3.1 -1 ------- null}
+ -t 0.201 -s 1 -d 2 -p cbr -e 500 -c 0 -i 2 -a 0 -x {1.0 3.0 1 ------- null}
- -t 0.201 -s 1 -d 2 -p cbr -e 500 -c 0 -i 2 -a 0 -x {1.0 3.0 1 ------- null}
h -t 0.201 -s 1 -d 2 -p cbr -e 500 -c 0 -i 2 -a 0 -x {1.0 3.0 -1 ------- null}
+ -t 0.202 -s 1 -d 2 -p cbr -e 500 -c 0 -i 3 -a 0 -x {1.0 3.0 2 ------- null}
- -t 0.202 -s 1 -d 2 -p cbr -e 500 -c 0 -i 3 -a 0 -x {1.0 3.0 2 ------- null}
h -t 0.202 -s 1 -d 2 -p cbr -e 500 -c 0 -i 3 -a 0 -x {1.0 3.0 -1 ------- null}
+ -t 0.203 -s 1 -d 2 -p cbr -e 500 -c 0 -i 4 -a 0 -x {1.0 3.0 3 ------- null}
- -t 0.203 -s 1 -d 2 -p cbr -e 500 -c 0 -i 4 -a 0 -x {1.0 3.0 3 ------- null}
h -t 0.203 -s 1 -d 2 -p cbr -e 500 -c 0 -i 4 -a 0 -x {1.0 3.0 -1 ------- null}
+ -t 0.204 -s 1 -d 2 -p cbr -e 500 -c 0 -i 5 -a 0 -x {1.0 3.0 4 ------- null}
- -t 0.204 -s 1 -d 2 -p cbr -e 500 -c 0 -i 5 -a 0 -x {1.0 3.0 4 ------- null}
h -t 0.204 -s 1 -d 2 -p cbr -e 500 -c 0 -i 5 -a 0 -x {1.0 3.0 -1 ------- null}
+ -t 0.205 -s 1 -d 2 -p cbr -e 500 -c 0 -i 6 -a 0 -x {1.0 3.0 5 ------- null}
- -t 0.205 -s 1 -d 2 -p cbr -e 500 -c 0 -i 6 -a 0 -x {1.0 3.0 5 ------- null}
h -t 0.205 -s 1 -d 2 -p cbr -e 500 -c 0 -i 6 -a 0 -x {1.0 3.0 -1 ------- null}
+ -t 0.206 -s 1 -d 2 -p cbr -e 500 -c 0 -i 7 -a 0 -x {1.0 3.0 6 ------- null}
- -t 0.206 -s 1 -d 2 -p cbr -e 500 -c 0 -i 7 -a 0 -x {1.0 3.0 6 ------- null}
h -t 0.206 -s 1 -d 2 -p cbr -e 500 -c 0 -i 7 -a 0 -x {1.0 3.0 -1 ------- null}
+ -t 0.207 -s 1 -d 2 -p cbr -e 500 -c 0 -i 8 -a 0 -x {1.0 3.0 7 ------- null}
- -t 0.207 -s 1 -d 2 -p cbr -e 500 -c 0 -i 8 -a 0 -x {1.0 3.0 7 ------- null}
h -t 0.207 -s 1 -d 2 -p cbr -e 500 -c 0 -i 8 -a 0 -x {1.0 3.0 -1 ------- null}
+ -t 0.208 -s 1 -d 2 -p cbr -e 500 -c 0 -i 9 -a 0 -x {1.0 3.0 8 ------- null}
- -t 0.208 -s 1 -d 2 -p cbr -e 500 -c 0 -i 9 -a 0 -x {1.0 3.0 8 ------- null}
h -t 0.208 -s 1 -d 2 -p cbr -e 500 -c 0 -i 9 -a 0 -x {1.0 3.0 -1 ------- null}
+ -t 0.209 -s 1 -d 2 -p cbr -e 500 -c 0 -i 10 -a 0 -x {1.0 3.0 9 ------- null}
- -t 0.209 -s 1 -d 2 -p cbr -e 500 -c 0 -i 10 -a 0 -x {1.0 3.0 9 ------- null}
h -t 0.209 -s 1 -d 2 -p cbr -e 500 -c 0 -i 10 -a 0 -x {1.0 3.0 -1 ------- null}
+ -t 0.21 -s 1 -d 2 -p cbr -e 500 -c 0 -i 11 -a 0 -x {1.0 3.0 10 ------- null}
- -t 0.21 -s 1 -d 2 -p cbr -e 500 -c 0 -i 11 -a 0 -x {1.0 3.0 10 ------- null}
h -t 0.21 -s 1 -d 2 -p cbr -e 500 -c 0 -i 11 -a 0 -x {1.0 3.0 -1 ------- null}
+ -t 0.211 -s 1 -d 2 -p cbr -e 500 -c 0 -i 12 -a 0 -x {1.0 3.0 11 ------- null}
- -t 0.211 -s 1 -d 2 -p cbr -e 500 -c 0 -i 12 -a 0 -x {1.0 3.0 11 ------- null}
h -t 0.211 -s 1 -d 2 -p cbr -e 500 -c 0 -i 12 -a 0 -x {1.0 3.0 -1 ------- null}
+ -t 0.212 -s 1 -d 2 -p cbr -e 500 -c 0 -i 13 -a 0 -x {1.0 3.0 12 ------- null}
- -t 0.212 -s 1 -d 2 -p cbr -e 500 -c 0 -i 13 -a 0 -x {1.0 3.0 12 ------- null}
h -t 0.212 -s 1 -d 2 -p cbr -e 500 -c 0 -i 13 -a 0 -x {1.0 3.0 -1 ------- null}
+ -t 0.213 -s 1 -d 2 -p cbr -e 500 -c 0 -i 14 -a 0 -x {1.0 3.0 13 ------- null}
- -t 0.213 -s 1 -d 2 -p cbr -e 500 -c 0 -i 14 -a 0 -x {1.0 3.0 13 ------- null}
h -t 0.213 -s 1 -d 2 -p cbr -e 500 -c 0 -i 14 -a 0 -x {1.0 3.0 -1 ------- null}
+ -t 0.214 -s 1 -d 2 -p cbr -e 500 -c 0 -i 15 -a 0 -x {1.0 3.0 14 ------- null}
- -t 0.214 -s 1 -d 2 -p cbr -e 500 -c 0 -i 15 -a 0 -x {1.0 3.0 14 ------- null}
h -t 0.214 -s 1 -d 2 -p cbr -e 500 -c 0 -i 15 -a 0 -x {1.0 3.0 -1 ------- null}
+ -t 0.215 -s 1 -d 2 -p cbr -e 500 -c 0 -i 16 -a 0 -x {1.0 3.0 15 ------- null}
- -t 0.215 -s 1 -d 2 -p cbr -e 500 -c 0 -i 16 -a 0 -x {1.0 3.0 15 ------- null}
h -t 0.215 -s 1 -d 2 -p cbr -e 500 -c 0 -i 16 -a 0 -x {1.0 3.0 -1 ------- null}
+ -t 0.216 -s 1 -d 2 -p cbr -e 500 -c 0 -i 17 -a 0 -x {1.0 3.0 16 ------- null}
- -t 0.216 -s 1 -d 2 -p cbr -e 500 -c 0 -i 17 -a 0 -x {1.0 3.0 16 ------- null}
h -t 0.216 -s 1 -d 2 -p cbr -e 500 -c 0 -i 17 -a 0 -x {1.0 3.0 -1 ------- null}
+ -t 0.217 -s 1 -d 2 -p cbr -e 500 -c 0 -i 18 -a 0 -x {1.0 3.0 17 ------- null}
- -t 0.217 -s 1 -d 2 -p cbr -e 500 -c 0 -i 18 -a 0 -x {1.0 3.0 17 ------- null}
h -t 0.217 -s 1 -d 2 -p cbr -e 500 -c 0 -i 18 -a 0 -x {1.0 3.0 -1 ------- null}
+ -t 0.218 -s 1 -d 2 -p cbr -e 500 -c 0 -i 19 -a 0 -x {1.0 3.0 18 ------- null}
- -t 0.218 -s 1 -d 2 -p cbr -e 500 -c 0 -i 19 -a 0 -x {1.0 3.0 18 ------- null}
h -t 0.218 -s 1 -d 2 -p cbr -e 500 -c 0 -i 19 -a 0 -x {1.0 3.0 -1 ------- null}
+ -t 0.219 -s 1 -d 2 -p cbr -e 500 -c 0 -i 20 -a 0 -x {1.0 3.0 19 ------- null}
- -t 0.219 -s 1 -d 2 -p cbr -e 500 -c 0 -i 20 -a 0 -x {1.0 3.0 19 ------- null}
h -t 0.219 -s 1 -d 2 -p cbr -e 500 -c 0 -i 20 -a 0 -x {1.0 3.0 -1 ------- null}
+ -t 0.22 -s 1 -d 2 -p cbr -e 500 -c 0 -i 21 -a 0 -x {1.0 3.0 20 ------- null}
- -t 0.22 -s 1 -d 2 -p cbr -e 500 -c 0 -i 21 -a 0 -x {1.0 3.0 20 ------- null}
h -t 0.22 -s 1 -d 2 -p cbr -e 500 -c 0 -i 21 -a 0 -x {1.0 3.0 -1 ------- null}
+ -t 0.221 -s 1 -d 2 -p cbr -e 500 -c 0 -i 22 -a 0 -x {1.0 3.0 21 ------- null}
- -t 0.221 -s 1 -d 2 -p cbr -e 500 -c 0 -i 22 -a 0 -x {1.0 3.0 21 ------- null}
h -t 0.221 -s 1 -d 2 -p cbr -e 500 -c 0 -i 22 -a 0 -x {1.0 3.0 -1 ------- null}
+ -t 0.222 -s 1 -d 2 -p cbr -e 500 -c 0 -i 23 -a 0 -x {1.0 3.0 22 ------- null}
- -t 0.222 -s 1 -d 2 -p cbr -e 500 -c 0 -i 23 -a 0 -x {1.0 3.0 22 ------- null}
h -t 0.222 -s 1 -d 2 -p cbr -e 500 -c 0 -i 23 -a 0 -x {1.0 3.0 -1 ------- null}
+ -t 0.223 -s 1 -d 2 -p cbr -e 500 -c 0 -i 24 -a 0 -x {1.0 3.0 23 ------- null}
- -t 0.223 -s 1 -d 2 -p cbr -e 500 -c 0 -i 24 -a 0 -x {1.0 3.0 23 ------- null}
h -t 0.223 -s 1 -d 2 -p cbr -e 500 -c 0 -i 24 -a 0 -x {1.0 3.0 -1 ------- null}
+ -t 0.224 -s 1 -d 2 -p cbr -e 500 -c 0 -i 25 -a 0 -x {1.0 3.0 24 ------- null}
- -t 0.224 -s 1 -d 2 -p cbr -e 500 -c 0 -i 25 -a 0 -x {1.0 3.0 24 ------- null}
h -t 0.224 -s 1 -d 2 -p cbr -e 500 -c 0 -i 25 -a 0 -x {1.0 3.0 -1 ------- null}
+ -t 0.225 -s 1 -d 2 -p cbr -e 500 -c 0 -i 26 -a 0 -x {1.0 3.0 25 ------- null}
- -t 0.225 -s 1 -d 2 -p cbr -e 500 -c 0 -i 26 -a 0 -x {1.0 3.0 25 ------- null}
h -t 0.225 -s 1 -d 2 -p cbr -e 500 -c 0 -i 26 -a 0 -x {1.0 3.0 -1 ------- null}
+ -t 0.226 -s 1 -d 2 -p cbr -e 500 -c 0 -i 27 -a 0 -x {1.0 3.0 26 ------- null}
- -t 0.226 -s 1 -d 2 -p cbr -e 500 -c 0 -i 27 -a 0 -x {1.0 3.0 26 ------- null}
h -t 0.226 -s 1 -d 2 -p cbr -e 500 -c 0 -i 27 -a 0 -x {1.0 3.0 -1 ------- null}
+ -t 0.227 -s 1 -d 2 -p cbr -e 500 -c 0 -i 28 -a 0 -x {1.0 3.0 27 ------- null}
- -t 0.227 -s 1 -d 2 -p cbr -e 500 -c 0 -i 28 -a 0 -x {1.0 3.0 27 ------- null}
h -t 0.227 -s 1 -d 2 -p cbr -e 500 -c 0 -i 28 -a 0 -x {1.0 3.0 -1 ------- null}
+ -t 0.228 -s 1 -d 2 -p cbr -e 500 -c 0 -i 29 -a 0 -x {1.0 3.0 28 ------- null}
- -t 0.228 -s 1 -d 2 -p cbr -e 500 -c 0 -i 29 -a 0 -x {1.0 3.0 28 ------- null}
h -t 0.228 -s 1 -d 2 -p cbr -e 500 -c 0 -i 29 -a 0 -x {1.0 3.0 -1 ------- null}
+ -t 0.229 -s 1 -d 2 -p cbr -e 500 -c 0 -i 30 -a 0 -x {1.0 3.0 29 ------- null}
- -t 0.229 -s 1 -d 2 -p cbr -e 500 -c 0 -i 30 -a 0 -x {1.0 3.0 29 ------- null}
h -t 0.229 -s 1 -d 2 -p cbr -e 500 -c 0 -i 30 -a 0 -x {1.0 3.0 -1 ------- null}
+ -t 0.23 -s 1 -d 2 -p cbr -e 500 -c 0 -i 31 -a 0 -x {1.0 3.0 30 ------- null}
- -t 0.23 -s 1 -d 2 -p cbr -e 500 -c 0 -i 31 -a 0 -x {1.0 3.0 30 ------- null}
h -t 0.23 -s 1 -d 2 -p cbr -e 500 -c 0 -i 31 -a 0 -x {1.0 3.0 -1 ------- null}
+ -t 0.231 -s 1 -d 2 -p cbr -e 500 -c 0 -i 32 -a 0 -x {1.0 3.0 31 ------- null}
- -t 0.231 -s 1 -d 2 -p cbr -e 500 -c 0 -i 32 -a 0 -x {1.0 3.0 31 ------- null}
h -t 0.231 -s 1 -d 2 -p cbr -e 500 -c 0 -i 32 -a 0 -x {1.0 3.0 -1 ------- null}
+ -t 0.232 -s 1 -d 2 -p cbr -e 500 -c 0 -i 33 -a 0 -x {1.0 3.0 32 ------- null}
- -t 0.232 -s 1 -d 2 -p cbr -e 500 -c 0 -i 33 -a 0 -x {1.0 3.0 32 ------- null}
h -t 0.232 -s 1 -d 2 -p cbr -e 500 -c 0 -i 33 -a 0 -x {1.0 3.0 -1 ------- null}
+ -t 0.233 -s 1 -d 2 -p cbr -e 500 -c 0 -i 34 -a 0 -x {1.0 3.0 33 ------- null}
- -t 0.233 -s 1 -d 2 -p cbr -e 500 -c 0 -i 34 -a 0 -x {1.0 3.0 33 ------- null}
h -t 0.233 -s 1 -d 2 -p cbr -e 500 -c 0 -i 34 -a 0 -x {1.0 3.0 -1 ------- null}
+ -t 0.234 -s 1 -d 2 -p cbr -e 500 -c 0 -i 35 -a 0 -x {1.0 3.0 34 ------- null}
- -t 0.234 -s 1 -d 2 -p cbr -e 500 -c 0 -i 35 -a 0 -x {1.0 3.0 34 ------- null}
h -t 0.234 -s 1 -d 2 -p cbr -e 500 -c 0 -i 35 -a 0 -x {1.0 3.0 -1 ------- null}
+ -t 0.235 -s 1 -d 2 -p cbr -e 500 -c 0 -i 36 -a 0 -x {1.0 3.0 35 ------- null}
- -t 0.235 -s 1 -d 2 -p cbr -e 500 -c 0 -i 36 -a 0 -x {1.0 3.0 35 ------- null}
h -t 0.235 -s 1 -d 2 -p cbr -e 500 -c 0 -i 36 -a 0 -x {1.0 3.0 -1 ------- null}
+ -t 0.236 -s 1 -d 2 -p cbr -e 500 -c 0 -i 37 -a 0 -x {1.0 3.0 36 ------- null}
- -t 0.236 -s 1 -d 2 -p cbr -e 500 -c 0 -i 37 -a 0 -x {1.0 3.0 36 ------- null}
h -t 0.236 -s 1 -d 2 -p cbr -e 500 -c 0 -i 37 -a 0 -x {1.0 3.0 -1 ------- null}
+ -t 0.237 -s 1 -d 2 -p cbr -e 500 -c 0 -i 38 -a 0 -x {1.0 3.0 37 ------- null}
- -t 0.237 -s 1 -d 2 -p cbr -e 500 -c 0 -i 38 -a 0 -x {1.0 3.0 37 ------- null}
h -t 0.237 -s 1 -d 2 -p cbr -e 500 -c 0 -i 38 -a 0 -x {1.0 3.0 -1 ------- null}
+ -t 0.238 -s 1 -d 2 -p cbr -e 500 -c 0 -i 39 -a 0 -x {1.0 3.0 38 ------- null}
- -t 0.238 -s 1 -d 2 -p cbr -e 500 -c 0 -i 39 -a 0 -x {1.0 3.0 38 ------- null}
h -t 0.238 -s 1 -d 2 -p cbr -e 500 -c 0 -i 39 -a 0 -x {1.0 3.0 -1 ------- null}
+ -t 0.239 -s 1 -d 2 -p cbr -e 500 -c 0 -i 40 -a 0 -x {1.0 3.0 39 ------- null}
- -t 0.239 -s 1 -d 2 -p cbr -e 500 -c 0 -i 40 -a 0 -x {1.0 3.0 39 ------- null}
h -t 0.239 -s 1 -d 2 -p cbr -e 500 -c 0 -i 40 -a 0 -x {1.0 3.0 -1 ------- null}
+ -t 0.24 -s 1 -d 2 -p cbr -e 500 -c 0 -i 41 -a 0 -x {1.0 3.0 40 ------- null}
- -t 0.24 -s 1 -d 2 -p cbr -e 500 -c 0 -i 41 -a 0 -x {1.0 3.0 40 ------- null}
h -t 0.24 -s 1 -d 2 -p cbr -e 500 -c 0 -i 41 -a 0 -x {1.0 3.0 -1 ------- null}
+ -t 0.241 -s 1 -d 2 -p cbr -e 500 -c 0 -i 42 -a 0 -x {1.0 3.0 41 ------- null}
- -t 0.241 -s 1 -d 2 -p cbr -e 500 -c 0 -i 42 -a 0 -x {1.0 3.0 41 ------- null}
h -t 0.241 -s 1 -d 2 -p cbr -e 500 -c 0 -i 42 -a 0 -x {1.0 3.0 -1 ------- null}
+ -t 0.242 -s 1 -d 2 -p cbr -e 500 -c 0 -i 43 -a 0 -x {1.0 3.0 42 ------- null}
- -t 0.242 -s 1 -d 2 -p cbr -e 500 -c 0 -i 43 -a 0 -x {1.0 3.0 42 ------- null}
h -t 0.242 -s 1 -d 2 -p cbr -e 500 -c 0 -i 43 -a 0 -x {1.0 3.0 -1 ------- null}
+ -t 0.243 -s 1 -d 2 -p cbr -e 500 -c 0 -i 44 -a 0 -x {1.0 3.0 43 ------- null}
- -t 0.243 -s 1 -d 2 -p cbr -e 500 -c 0 -i 44 -a 0 -x {1.0 3.0 43 ------- null}
h -t 0.243 -s 1 -d 2 -p cbr -e 500 -c 0 -i 44 -a 0 -x {1.0 3.0 -1 ------- null}
+ -t 0.244 -s 1 -d 2 -p cbr -e 500 -c 0 -i 45 -a 0 -x {1.0 3.0 44 ------- null}
- -t 0.244 -s 1 -d 2 -p cbr -e 500 -c 0 -i 45 -a 0 -x {1.0 3.0 44 ------- null}
h -t 0.244 -s 1 -d 2 -p cbr -e 500 -c 0 -i 45 -a 0 -x {1.0 3.0 -1 ------- null}
+ -t 0.245 -s 1 -d 2 -p cbr -e 500 -c 0 -i 46 -a 0 -x {1.0 3.0 45 ------- null}
- -t 0.245 -s 1 -d 2 -p cbr -e 500 -c 0 -i 46 -a 0 -x {1.0 3.0 45 ------- null}
h -t 0.245 -s 1 -d 2 -p cbr -e 500 -c 0 -i 46 -a 0 -x {1.0 3.0 -1 ------- null}
+ -t 0.246 -s 1 -d 2 -p cbr -e 500 -c 0 -i 47 -a 0 -x {1.0 3.0 46 ------- null}
- -t 0.246 -s 1 -d 2 -p cbr -e 500 -c 0 -i 47 -a 0 -x {1.0 3.0 46 ------- null}
h -t 0.246 -s 1 -d 2 -p cbr -e 500 -c 0 -i 47 -a 0 -x {1.0 3.0 -1 ------- null}
+ -t 0.247 -s 1 -d 2 -p cbr -e 500 -c 0 -i 48 -a 0 -x {1.0 3.0 47 ------- null}
- -t 0.247 -s 1 -d 2 -p cbr -e 500 -c 0 -i 48 -a 0 -x {1.0 3.0 47 ------- null}
h -t 0.247 -s 1 -d 2 -p cbr -e 500 -c 0 -i 48 -a 0 -x {1.0 3.0 -1 ------- null}
+ -t 0.248 -s 1 -d 2 -p cbr -e 500 -c 0 -i 49 -a 0 -x {1.0 3.0 48 ------- null}
- -t 0.248 -s 1 -d 2 -p cbr -e 500 -c 0 -i 49 -a 0 -x {1.0 3.0 48 ------- null}
h -t 0.248 -s 1 -d 2 -p cbr -e 500 -c 0 -i 49 -a 0 -x {1.0 3.0 -1 ------- null}
+ -t 0.249 -s 1 -d 2 -p cbr -e 500 -c 0 -i 50 -a 0 -x {1.0 3.0 49 ------- null}
- -t 0.249 -s 1 -d 2 -p cbr -e 500 -c 0 -i 50 -a 0 -x {1.0 3.0 49 ------- null}
h -t 0.249 -s 1 -d 2 -p cbr -e 500 -c 0 -i 50 -a 0 -x {1.0 3.0 -1 ------- null}
+ -t 0.25 -s 1 -d 2 -p cbr -e 500 -c 0 -i 51 -a 0 -x {1.0 3.0 50 ------- null}
- -t 0.25 -s 1 -d 2 -p cbr -e 500 -c 0 -i 51 -a 0 -x {1.0 3.0 50 ------- null}
h -t 0.25 -s 1 -d 2 -p cbr -e 500 -c 0 -i 51 -a 0 -x {1.0 3.0 -1 ------- null}
+ -t 0.251 -s 1 -d 2 -p cbr -e 500 -c 0 -i 52 -a 0 -x {1.0 3.0 51 ------- null}
- -t 0.251 -s 1 -d 2 -p cbr -e 500 -c 0 -i 52 -a 0 -x {1.0 3.0 51 ------- null}
h -t 0.251 -s 1 -d 2 -p cbr -e 500 -c 0 -i 52 -a 0 -x {1.0 3.0 -1 ------- null}
+ -t 0.252 -s 1 -d 2 -p cbr -e 500 -c 0 -i 53 -a 0 -x {1.0 3.0 52 ------- null}
- -t 0.252 -s 1 -d 2 -p cbr -e 500 -c 0 -i 53 -a 0 -x {1.0 3.0 52 ------- null}
h -t 0.252 -s 1 -d 2 -p cbr -e 500 -c 0 -i 53 -a 0 -x {1.0 3.0 -1 ------- null}
+ -t 0.253 -s 1 -d 2 -p cbr -e 500 -c 0 -i 54 -a 0 -x {1.0 3.0 53 ------- null}
- -t 0.253 -s 1 -d 2 -p cbr -e 500 -c 0 -i 54 -a 0 -x {1.0 3.0 53 ------- null}
h -t 0.253 -s 1 -d 2 -p cbr -e 500 -c 0 -i 54 -a 0 -x {1.0 3.0 -1 ------- null}
+ -t 0.254 -s 1 -d 2 -p cbr -e 500 -c 0 -i 55 -a 0 -x {1.0 3.0 54 ------- null}
- -t 0.254 -s 1 -d 2 -p cbr -e 500 -c 0 -i 55 -a 0 -x {1.0 3.0 54 ------- null}
h -t 0.254 -s 1 -d 2 -p cbr -e 500 -c 0 -i 55 -a 0 -x {1.0 3.0 -1 ------- null}
+ -t 0.255 -s 1 -d 2 -p cbr -e 500 -c 0 -i 56 -a 0 -x {1.0 3.0 55 ------- null}
- -t 0.255 -s 1 -d 2 -p cbr -e 500 -c 0 -i 56 -a 0 -x {1.0 3.0 55 ------- null}
h -t 0.255 -s 1 -d 2 -p cbr -e 500 -c 0 -i 56 -a 0 -x {1.0 3.0 -1 ------- null}
+ -t 0.256 -s 1 -d 2 -p cbr -e 500 -c 0 -i 57 -a 0 -x {1.0 3.0 56 ------- null}
- -t 0.256 -s 1 -d 2 -p cbr -e 500 -c 0 -i 57 -a 0 -x {1.0 3.0 56 ------- null}
h -t 0.256 -s 1 -d 2 -p cbr -e 500 -c 0 -i 57 -a 0 -x {1.0 3.0 -1 ------- null}
+ -t 0.257 -s 1 -d 2 -p cbr -e 500 -c 0 -i 58 -a 0 -x {1.0 3.0 57 ------- null}
- -t 0.257 -s 1 -d 2 -p cbr -e 500 -c 0 -i 58 -a 0 -x {1.0 3.0 57 ------- null}
h -t 0.257 -s 1 -d 2 -p cbr -e 500 -c 0 -i 58 -a 0 -x {1.0 3.0 -1 ------- null}
+ -t 0.258 -s 1 -d 2 -p cbr -e 500 -c 0 -i 59 -a 0 -x {1.0 3.0 58 ------- null}
- -t 0.258 -s 1 -d 2 -p cbr -e 500 -c 0 -i 59 -a 0 -x {1.0 3.0 58 ------- null}
h -t 0.258 -s 1 -d 2 -p cbr -e 500 -c 0 -i 59 -a 0 -x {1.0 3.0 -1 ------- null}
+ -t 0.259 -s 1 -d 2 -p cbr -e 500 -c 0 -i 60 -a 0 -x {1.0 3.0 59 ------- null}
- -t 0.259 -s 1 -d 2 -p cbr -e 500 -c 0 -i 60 -a 0 -x {1.0 3.0 59 ------- null}
h -t 0.259 -s 1 -d 2 -p cbr -e 500 -c 0 -i 60 -a 0 -x {1.0 3.0 -1 ------- null}
+ -t 0.26 -s 1 -d 2 -p cbr -e 500 -c 0 -i 61 -a 0 -x {1.0 3.0 60 ------- null}
- -t 0.26 -s 1 -d 2 -p cbr -e 500 -c 0 -i 61 -a 0 -x {1.0 3.0 60 ------- null}
h -t 0.26 -s 1 -d 2 -p cbr -e 500 -c 0 -i 61 -a 0 -x {1.0 3.0 -1 ------- null}
+ -t 0.261 -s 1 -d 2 -p cbr -e 500 -c 0 -i 62 -a 0 -x {1.0 3.0 61 ------- null}
- -t 0.261 -s 1 -d 2 -p cbr -e 500 -c 0 -i 62 -a 0 -x {1.0 3.0 61 ------- null}
h -t 0.261 -s 1 -d 2 -p cbr -e 500 -c 0 -i 62 -a 0 -x {1.0 3.0 -1 ------- null}
+ -t 0.262 -s 1 -d 2 -p cbr -e 500 -c 0 -i 63 -a 0 -x {1.0 3.0 62 ------- null}
- -t 0.262 -s 1 -d 2 -p cbr -e 500 -c 0 -i 63 -a 0 -x {1.0 3.0 62 ------- null}
h -t 0.262 -s 1 -d 2 -p cbr -e 500 -c 0 -i 63 -a 0 -x {1.0 3.0 -1 ------- null}
+ -t 0.263 -s 1 -d 2 -p cbr -e 500 -c 0 -i 64 -a 0 -x {1.0 3.0 63 ------- null}
- -t 0.263 -s 1 -d 2 -p cbr -e 500 -c 0 -i 64 -a 0 -x {1.0 3.0 63 ------- null}
h -t 0.263 -s 1 -d 2 -p cbr -e 500 -c 0 -i 64 -a 0 -x {1.0 3.0 -1 ------- null}
+ -t 0.264 -s 1 -d 2 -p cbr -e 500 -c 0 -i 65 -a 0 -x {1.0 3.0 64 ------- null}
- -t 0.264 -s 1 -d 2 -p cbr -e 500 -c 0 -i 65 -a 0 -x {1.0 3.0 64 ------- null}
h -t 0.264 -s 1 -d 2 -p cbr -e 500 -c 0 -i 65 -a 0 -x {1.0 3.0 -1 ------- null}
+ -t 0.265 -s 1 -d 2 -p cbr -e 500 -c 0 -i 66 -a 0 -x {1.0 3.0 65 ------- null}
- -t 0.265 -s 1 -d 2 -p cbr -e 500 -c 0 -i 66 -a 0 -x {1.0 3.0 65 ------- null}
h -t 0.265 -s 1 -d 2 -p cbr -e 500 -c 0 -i 66 -a 0 -x {1.0 3.0 -1 ------- null}
+ -t 0.266 -s 1 -d 2 -p cbr -e 500 -c 0 -i 67 -a 0 -x {1.0 3.0 66 ------- null}
- -t 0.266 -s 1 -d 2 -p cbr -e 500 -c 0 -i 67 -a 0 -x {1.0 3.0 66 ------- null}
h -t 0.266 -s 1 -d 2 -p cbr -e 500 -c 0 -i 67 -a 0 -x {1.0 3.0 -1 ------- null}
+ -t 0.267 -s 1 -d 2 -p cbr -e 500 -c 0 -i 68 -a 0 -x {1.0 3.0 67 ------- null}
- -t 0.267 -s 1 -d 2 -p cbr -e 500 -c 0 -i 68 -a 0 -x {1.0 3.0 67 ------- null}
h -t 0.267 -s 1 -d 2 -p cbr -e 500 -c 0 -i 68 -a 0 -x {1.0 3.0 -1 ------- null}
+ -t 0.268 -s 1 -d 2 -p cbr -e 500 -c 0 -i 69 -a 0 -x {1.0 3.0 68 ------- null}
- -t 0.268 -s 1 -d 2 -p cbr -e 500 -c 0 -i 69 -a 0 -x {1.0 3.0 68 ------- null}
h -t 0.268 -s 1 -d 2 -p cbr -e 500 -c 0 -i 69 -a 0 -x {1.0 3.0 -1 ------- null}
+ -t 0.269 -s 1 -d 2 -p cbr -e 500 -c 0 -i 70 -a 0 -x {1.0 3.0 69 ------- null}
- -t 0.269 -s 1 -d 2 -p cbr -e 500 -c 0 -i 70 -a 0 -x {1.0 3.0 69 ------- null}
h -t 0.269 -s 1 -d 2 -p cbr -e 500 -c 0 -i 70 -a 0 -x {1.0 3.0 -1 ------- null}
+ -t 0.27 -s 1 -d 2 -p cbr -e 500 -c 0 -i 71 -a 0 -x {1.0 3.0 70 ------- null}
- -t 0.27 -s 1 -d 2 -p cbr -e 500 -c 0 -i 71 -a 0 -x {1.0 3.0 70 ------- null}
h -t 0.27 -s 1 -d 2 -p cbr -e 500 -c 0 -i 71 -a 0 -x {1.0 3.0 -1 ------- null}
+ -t 0.271 -s 1 -d 2 -p cbr -e 500 -c 0 -i 72 -a 0 -x {1.0 3.0 71 ------- null}
- -t 0.271 -s 1 -d 2 -p cbr -e 500 -c 0 -i 72 -a 0 -x {1.0 3.0 71 ------- null}
h -t 0.271 -s 1 -d 2 -p cbr -e 500 -c 0 -i 72 -a 0 -x {1.0 3.0 -1 ------- null}
+ -t 0.272 -s 1 -d 2 -p cbr -e 500 -c 0 -i 73 -a 0 -x {1.0 3.0 72 ------- null}
- -t 0.272 -s 1 -d 2 -p cbr -e 500 -c 0 -i 73 -a 0 -x {1.0 3.0 72 ------- null}
h -t 0.272 -s 1 -d 2 -p cbr -e 500 -c 0 -i 73 -a 0 -x {1.0 3.0 -1 ------- null}
+ -t 0.273 -s 1 -d 2 -p cbr -e 500 -c 0 -i 74 -a 0 -x {1.0 3.0 73 ------- null}
- -t 0.273 -s 1 -d 2 -p cbr -e 500 -c 0 -i 74 -a 0 -x {1.0 3.0 73 ------- null}
h -t 0.273 -s 1 -d 2 -p cbr -e 500 -c 0 -i 74 -a 0 -x {1.0 3.0 -1 ------- null}
+ -t 0.274 -s 1 -d 2 -p cbr -e 500 -c 0 -i 75 -a 0 -x {1.0 3.0 74 ------- null}
- -t 0.274 -s 1 -d 2 -p cbr -e 500 -c 0 -i 75 -a 0 -x {1.0 3.0 74 ------- null}
h -t 0.274 -s 1 -d 2 -p cbr -e 500 -c 0 -i 75 -a 0 -x {1.0 3.0 -1 ------- null}
+ -t 0.275 -s 1 -d 2 -p cbr -e 500 -c 0 -i 76 -a 0 -x {1.0 3.0 75 ------- null}
- -t 0.275 -s 1 -d 2 -p cbr -e 500 -c 0 -i 76 -a 0 -x {1.0 3.0 75 ------- null}
h -t 0.275 -s 1 -d 2 -p cbr -e 500 -c 0 -i 76 -a 0 -x {1.0 3.0 -1 ------- null}
+ -t 0.276 -s 1 -d 2 -p cbr -e 500 -c 0 -i 77 -a 0 -x {1.0 3.0 76 ------- null}
- -t 0.276 -s 1 -d 2 -p cbr -e 500 -c 0 -i 77 -a 0 -x {1.0 3.0 76 ------- null}
h -t 0.276 -s 1 -d 2 -p cbr -e 500 -c 0 -i 77 -a 0 -x {1.0 3.0 -1 ------- null}
+ -t 0.277 -s 1 -d 2 -p cbr -e 500 -c 0 -i 78 -a 0 -x {1.0 3.0 77 ------- null}
- -t 0.277 -s 1 -d 2 -p cbr -e 500 -c 0 -i 78 -a 0 -x {1.0 3.0 77 ------- null}
h -t 0.277 -s 1 -d 2 -p cbr -e 500 -c 0 -i 78 -a 0 -x {1.0 3.0 -1 ------- null}
+ -t 0.278 -s 1 -d 2 -p cbr -e 500 -c 0 -i 79 -a 0 -x {1.0 3.0 78 ------- null}
- -t 0.278 -s 1 -d 2 -p cbr -e 500 -c 0 -i 79 -a 0 -x {1.0 3.0 78 ------- null}
h -t 0.278 -s 1 -d 2 -p cbr -e 500 -c 0 -i 79 -a 0 -x {1.0 3.0 -1 ------- null}
+ -t 0.279 -s 1 -d 2 -p cbr -e 500 -c 0 -i 80 -a 0 -x {1.0 3.0 79 ------- null}
- -t 0.279 -s 1 -d 2 -p cbr -e 500 -c 0 -i 80 -a 0 -x {1.0 3.0 79 ------- null}
h -t 0.279 -s 1 -d 2 -p cbr -e 500 -c 0 -i 80 -a 0 -x {1.0 3.0 -1 ------- null}
+ -t 0.28 -s 1 -d 2 -p cbr -e 500 -c 0 -i 81 -a 0 -x {1.0 3.0 80 ------- null}
- -t 0.28 -s 1 -d 2 -p cbr -e 500 -c 0 -i 81 -a 0 -x {1.0 3.0 80 ------- null}
h -t 0.28 -s 1 -d 2 -p cbr -e 500 -c 0 -i 81 -a 0 -x {1.0 3.0 -1 ------- null}
+ -t 0.281 -s 1 -d 2 -p cbr -e 500 -c 0 -i 82 -a 0 -x {1.0 3.0 81 ------- null}
- -t 0.281 -s 1 -d 2 -p cbr -e 500 -c 0 -i 82 -a 0 -x {1.0 3.0 81 ------- null}
h -t 0.281 -s 1 -d 2 -p cbr -e 500 -c 0 -i 82 -a 0 -x {1.0 3.0 -1 ------- null}
+ -t 0.282 -s 1 -d 2 -p cbr -e 500 -c 0 -i 83 -a 0 -x {1.0 3.0 82 ------- null}
- -t 0.282 -s 1 -d 2 -p cbr -e 500 -c 0 -i 83 -a 0 -x {1.0 3.0 82 ------- null}
h -t 0.282 -s 1 -d 2 -p cbr -e 500 -c 0 -i 83 -a 0 -x {1.0 3.0 -1 ------- null}
+ -t 0.283 -s 1 -d 2 -p cbr -e 500 -c 0 -i 84 -a 0 -x {1.0 3.0 83 ------- null}
- -t 0.283 -s 1 -d 2 -p cbr -e 500 -c 0 -i 84 -a 0 -x {1.0 3.0 83 ------- null}
h -t 0.283 -s 1 -d 2 -p cbr -e 500 -c 0 -i 84 -a 0 -x {1.0 3.0 -1 ------- null}
+ -t 0.284 -s 1 -d 2 -p cbr -e 500 -c 0 -i 85 -a 0 -x {1.0 3.0 84 ------- null}
- -t 0.284 -s 1 -d 2 -p cbr -e 500 -c 0 -i 85 -a 0 -x {1.0 3.0 84 ------- null}
h -t 0.284 -s 1 -d 2 -p cbr -e 500 -c 0 -i 85 -a 0 -x {1.0 3.0 -1 ------- null}
+ -t 0.285 -s 1 -d 2 -p cbr -e 500 -c 0 -i 86 -a 0 -x {1.0 3.0 85 ------- null}
- -t 0.285 -s 1 -d 2 -p cbr -e 500 -c 0 -i 86 -a 0 -x {1.0 3.0 85 ------- null}
h -t 0.285 -s 1 -d 2 -p cbr -e 500 -c 0 -i 86 -a 0 -x {1.0 3.0 -1 ------- null}
+ -t 0.286 -s 1 -d 2 -p cbr -e 500 -c 0 -i 87 -a 0 -x {1.0 3.0 86 ------- null}
- -t 0.286 -s 1 -d 2 -p cbr -e 500 -c 0 -i 87 -a 0 -x {1.0 3.0 86 ------- null}
h -t 0.286 -s 1 -d 2 -p cbr -e 500 -c 0 -i 87 -a 0 -x {1.0 3.0 -1 ------- null}
+ -t 0.287 -s 1 -d 2 -p cbr -e 500 -c 0 -i 88 -a 0 -x {1.0 3.0 87 ------- null}
- -t 0.287 -s 1 -d 2 -p cbr -e 500 -c 0 -i 88 -a 0 -x {1.0 3.0 87 ------- null}
h -t 0.287 -s 1 -d 2 -p cbr -e 500 -c 0 -i 88 -a 0 -x {1.0 3.0 -1 ------- null}
+ -t 0.288 -s 1 -d 2 -p cbr -e 500 -c 0 -i 89 -a 0 -x {1.0 3.0 88 ------- null}
- -t 0.288 -s 1 -d 2 -p cbr -e 500 -c 0 -i 89 -a 0 -x {1.0 3.0 88 ------- null}
h -t 0.288 -s 1 -d 2 -p cbr -e 500 -c 0 -i 89 -a 0 -x {1.0 3.0 -1 ------- null}
+ -t 0.289 -s 1 -d 2 -p cbr -e 500 -c 0 -i 90 -a 0 -x {1.0 3.0 89 ------- null}
- -t 0.289 -s 1 -d 2 -p cbr -e 500 -c 0 -i 90 -a 0 -x {1.0 3.0 89 ------- null}
h -t 0.289 -s 1 -d 2 -p cbr -e 500 -c 0 -i 90 -a 0 -x {1.0 3.0 -1 ------- null}
+ -t 0.29 -s 1 -d 2 -p cbr -e 500 -c 0 -i 91 -a 0 -x {1.0 3.0 90 ------- null}
- -t 0.29 -s 1 -d 2 -p cbr -e 500 -c 0 -i 91 -a 0 -x {1.0 3.0 90 ------- null}
h -t 0.29 -s 1 -d 2 -p cbr -e 500 -c 0 -i 91 -a 0 -x {1.0 3.0 -1 ------- null}
+ -t 0.291 -s 1 -d 2 -p cbr -e 500 -c 0 -i 92 -a 0 -x {1.0 3.0 91 ------- null}
- -t 0.291 -s 1 -d 2 -p cbr -e 500 -c 0 -i 92 -a 0 -x {1.0 3.0 91 ------- null}
h -t 0.291 -s 1 -d 2 -p cbr -e 500 -c 0 -i 92 -a 0 -x {1.0 3.0 -1 ------- null}
+ -t 0.292 -s 1 -d 2 -p cbr -e 500 -c 0 -i 93 -a 0 -x {1.0 3.0 92 ------- null}
- -t 0.292 -s 1 -d 2 -p cbr -e 500 -c 0 -i 93 -a 0 -x {1.0 3.0 92 ------- null}
h -t 0.292 -s 1 -d 2 -p cbr -e 500 -c 0 -i 93 -a 0 -x {1.0 3.0 -1 ------- null}
+ -t 0.293 -s 1 -d 2 -p cbr -e 500 -c 0 -i 94 -a 0 -x {1.0 3.0 93 ------- null}
- -t 0.293 -s 1 -d 2 -p cbr -e 500 -c 0 -i 94 -a 0 -x {1.0 3.0 93 ------- null}
h -t 0.293 -s 1 -d 2 -p cbr -e 500 -c 0 -i 94 -a 0 -x {1.0 3.0 -1 ------- null}
+ -t 0.294 -s 1 -d 2 -p cbr -e 500 -c 0 -i 95 -a 0 -x {1.0 3.0 94 ------- null}
- -t 0.294 -s 1 -d 2 -p cbr -e 500 -c 0 -i 95 -a 0 -x {1.0 3.0 94 ------- null}
h -t 0.294 -s 1 -d 2 -p cbr -e 500 -c 0 -i 95 -a 0 -x {1.0 3.0 -1 ------- null}
+ -t 0.295 -s 1 -d 2 -p cbr -e 500 -c 0 -i 96 -a 0 -x {1.0 3.0 95 ------- null}
- -t 0.295 -s 1 -d 2 -p cbr -e 500 -c 0 -i 96 -a 0 -x {1.0 3.0 95 ------- null}
h -t 0.295 -s 1 -d 2 -p cbr -e 500 -c 0 -i 96 -a 0 -x {1.0 3.0 -1 ------- null}
+ -t 0.296 -s 1 -d 2 -p cbr -e 500 -c 0 -i 97 -a 0 -x {1.0 3.0 96 ------- null}
- -t 0.296 -s 1 -d 2 -p cbr -e 500 -c 0 -i 97 -a 0 -x {1.0 3.0 96 ------- null}
h -t 0.296 -s 1 -d 2 -p cbr -e 500 -c 0 -i 97 -a 0 -x {1.0 3.0 -1 ------- null}
+ -t 0.297 -s 1 -d 2 -p cbr -e 500 -c 0 -i 98 -a 0 -x {1.0 3.0 97 ------- null}
- -t 0.297 -s 1 -d 2 -p cbr -e 500 -c 0 -i 98 -a 0 -x {1.0 3.0 97 ------- null}
h -t 0.297 -s 1 -d 2 -p cbr -e 500 -c 0 -i 98 -a 0 -x {1.0 3.0 -1 ------- null}
+ -t 0.298 -s 1 -d 2 -p cbr -e 500 -c 0 -i 99 -a 0 -x {1.0 3.0 98 ------- null}
- -t 0.298 -s 1 -d 2 -p cbr -e 500 -c 0 -i 99 -a 0 -x {1.0 3.0 98 ------- null}
h -t 0.298 -s 1 -d 2 -p cbr -e 500 -c 0 -i 99 -a 0 -x {1.0 3.0 -1 ------- null}
+ -t 0.299 -s 1 -d 2 -p cbr -e 500 -c 0 -i 100 -a 0 -x {1.0 3.0 99 ------- null}
- -t 0.299 -s 1 -d 2 -p cbr -e 500 -c 0 -i 100 -a 0 -x {1.0 3.0 99 ------- null}
h -t 0.299 -s 1 -d 2 -p cbr -e 500 -c 0 -i 100 -a 0 -x {1.0 3.0 -1 ------- null}
+ -t 0.3 -s 1 -d 2 -p cbr -e 500 -c 0 -i 101 -a 0 -x {1.0 3.0 100 ------- null}
- -t 0.3 -s 1 -d 2 -p cbr -e 500 -c 0 -i 101 -a 0 -x {1.0 3.0 100 ------- null}
h -t 0.3 -s 1 -d 2 -p cbr -e 500 -c 0 -i 101 -a 0 -x {1.0 3.0 -1 ------- null}
r -t 0.300012 -s 2 -d 3 -p tcp -e 40 -c 0 -i 0 -a 0 -x {0.0 3.1 0 ------- null}
+ -t 0.300012 -s 3 -d 2 -p ack -e 40 -c 0 -i 102 -a 0 -x {3.1 0.0 0 ------- null}
- -t 0.300012 -s 3 -d 2 -p ack -e 40 -c 0 -i 102 -a 0 -x {3.1 0.0 0 ------- null}
h -t 0.300012 -s 3 -d 2 -p ack -e 40 -c 0 -i 102 -a 0 -x {3.1 0.0 -1 ------- null}
r -t 0.30005 -s 1 -d 2 -p cbr -e 500 -c 0 -i 1 -a 0 -x {1.0 3.0 0 ------- null}
+ -t 0.30005 -s 2 -d 3 -p cbr -e 500 -c 0 -i 1 -a 0 -x {1.0 3.0 0 ------- null}
- -t 0.30005 -s 2 -d 3 -p cbr -e 500 -c 0 -i 1 -a 0 -x {1.0 3.0 0 ------- null}
h -t 0.30005 -s 2 -d 3 -p cbr -e 500 -c 0 -i 1 -a 0 -x {1.0 3.0 -1 ------- null}
+ -t 0.301 -s 1 -d 2 -p cbr -e 500 -c 0 -i 103 -a 0 -x {1.0 3.0 101 ------- null}
- -t 0.301 -s 1 -d 2 -p cbr -e 500 -c 0 -i 103 -a 0 -x {1.0 3.0 101 ------- null}
h -t 0.301 -s 1 -d 2 -p cbr -e 500 -c 0 -i 103 -a 0 -x {1.0 3.0 -1 ------- null}
r -t 0.30105 -s 1 -d 2 -p cbr -e 500 -c 0 -i 2 -a 0 -x {1.0 3.0 1 ------- null}
+ -t 0.30105 -s 2 -d 3 -p cbr -e 500 -c 0 -i 2 -a 0 -x {1.0 3.0 1 ------- null}
- -t 0.30105 -s 2 -d 3 -p cbr -e 500 -c 0 -i 2 -a 0 -x {1.0 3.0 1 ------- null}
h -t 0.30105 -s 2 -d 3 -p cbr -e 500 -c 0 -i 2 -a 0 -x {1.0 3.0 -1 ------- null}
+ -t 0.302 -s 1 -d 2 -p cbr -e 500 -c 0 -i 104 -a 0 -x {1.0 3.0 102 ------- null}
- -t 0.302 -s 1 -d 2 -p cbr -e 500 -c 0 -i 104 -a 0 -x {1.0 3.0 102 ------- null}
h -t 0.302 -s 1 -d 2 -p cbr -e 500 -c 0 -i 104 -a 0 -x {1.0 3.0 -1 ------- null}
r -t 0.30205 -s 1 -d 2 -p cbr -e 500 -c 0 -i 3 -a 0 -x {1.0 3.0 2 ------- null}
+ -t 0.30205 -s 2 -d 3 -p cbr -e 500 -c 0 -i 3 -a 0 -x {1.0 3.0 2 ------- null}
- -t 0.30205 -s 2 -d 3 -p cbr -e 500 -c 0 -i 3 -a 0 -x {1.0 3.0 2 ------- null}
h -t 0.30205 -s 2 -d 3 -p cbr -e 500 -c 0 -i 3 -a 0 -x {1.0 3.0 -1 ------- null}
+ -t 0.303 -s 1 -d 2 -p cbr -e 500 -c 0 -i 105 -a 0 -x {1.0 3.0 103 ------- null}
- -t 0.303 -s 1 -d 2 -p cbr -e 500 -c 0 -i 105 -a 0 -x {1.0 3.0 103 ------- null}
h -t 0.303 -s 1 -d 2 -p cbr -e 500 -c 0 -i 105 -a 0 -x {1.0 3.0 -1 ------- null}
r -t 0.30305 -s 1 -d 2 -p cbr -e 500 -c 0 -i 4 -a 0 -x {1.0 3.0 3 ------- null}
+ -t 0.30305 -s 2 -d 3 -p cbr -e 500 -c 0 -i 4 -a 0 -x {1.0 3.0 3 ------- null}
- -t 0.30305 -s 2 -d 3 -p cbr -e 500 -c 0 -i 4 -a 0 -x {1.0 3.0 3 ------- null}
h -t 0.30305 -s 2 -d 3 -p cbr -e 500 -c 0 -i 4 -a 0 -x {1.0 3.0 -1 ------- null}
+ -t 0.304 -s 1 -d 2 -p cbr -e 500 -c 0 -i 106 -a 0 -x {1.0 3.0 104 ------- null}
- -t 0.304 -s 1 -d 2 -p cbr -e 500 -c 0 -i 106 -a 0 -x {1.0 3.0 104 ------- null}
h -t 0.304 -s 1 -d 2 -p cbr -e 500 -c 0 -i 106 -a 0 -x {1.0 3.0 -1 ------- null}
r -t 0.30405 -s 1 -d 2 -p cbr -e 500 -c 0 -i 5 -a 0 -x {1.0 3.0 4 ------- null}
+ -t 0.30405 -s 2 -d 3 -p cbr -e 500 -c 0 -i 5 -a 0 -x {1.0 3.0 4 ------- null}
- -t 0.30405 -s 2 -d 3 -p cbr -e 500 -c 0 -i 5 -a 0 -x {1.0 3.0 4 ------- null}
h -t 0.30405 -s 2 -d 3 -p cbr -e 500 -c 0 -i 5 -a 0 -x {1.0 3.0 -1 ------- null}
+ -t 0.305 -s 1 -d 2 -p cbr -e 500 -c 0 -i 107 -a 0 -x {1.0 3.0 105 ------- null}
- -t 0.305 -s 1 -d 2 -p cbr -e 500 -c 0 -i 107 -a 0 -x {1.0 3.0 105 ------- null}
h -t 0.305 -s 1 -d 2 -p cbr -e 500 -c 0 -i 107 -a 0 -x {1.0 3.0 -1 ------- null}
r -t 0.30505 -s 1 -d 2 -p cbr -e 500 -c 0 -i 6 -a 0 -x {1.0 3.0 5 ------- null}
+ -t 0.30505 -s 2 -d 3 -p cbr -e 500 -c 0 -i 6 -a 0 -x {1.0 3.0 5 ------- null}
- -t 0.30505 -s 2 -d 3 -p cbr -e 500 -c 0 -i 6 -a 0 -x {1.0 3.0 5 ------- null}
h -t 0.30505 -s 2 -d 3 -p cbr -e 500 -c 0 -i 6 -a 0 -x {1.0 3.0 -1 ------- null}
+ -t 0.306 -s 1 -d 2 -p cbr -e 500 -c 0 -i 108 -a 0 -x {1.0 3.0 106 ------- null}
- -t 0.306 -s 1 -d 2 -p cbr -e 500 -c 0 -i 108 -a 0 -x {1.0 3.0 106 ------- null}
h -t 0.306 -s 1 -d 2 -p cbr -e 500 -c 0 -i 108 -a 0 -x {1.0 3.0 -1 ------- null}
r -t 0.30605 -s 1 -d 2 -p cbr -e 500 -c 0 -i 7 -a 0 -x {1.0 3.0 6 ------- null}
+ -t 0.30605 -s 2 -d 3 -p cbr -e 500 -c 0 -i 7 -a 0 -x {1.0 3.0 6 ------- null}
- -t 0.30605 -s 2 -d 3 -p cbr -e 500 -c 0 -i 7 -a 0 -x {1.0 3.0 6 ------- null}
h -t 0.30605 -s 2 -d 3 -p cbr -e 500 -c 0 -i 7 -a 0 -x {1.0 3.0 -1 ------- null}
+ -t 0.307 -s 1 -d 2 -p cbr -e 500 -c 0 -i 109 -a 0 -x {1.0 3.0 107 ------- null}
- -t 0.307 -s 1 -d 2 -p cbr -e 500 -c 0 -i 109 -a 0 -x {1.0 3.0 107 ------- null}
h -t 0.307 -s 1 -d 2 -p cbr -e 500 -c 0 -i 109 -a 0 -x {1.0 3.0 -1 ------- null}
r -t 0.30705 -s 1 -d 2 -p cbr -e 500 -c 0 -i 8 -a 0 -x {1.0 3.0 7 ------- null}
+ -t 0.30705 -s 2 -d 3 -p cbr -e 500 -c 0 -i 8 -a 0 -x {1.0 3.0 7 ------- null}
- -t 0.30705 -s 2 -d 3 -p cbr -e 500 -c 0 -i 8 -a 0 -x {1.0 3.0 7 ------- null}
h -t 0.30705 -s 2 -d 3 -p cbr -e 500 -c 0 -i 8 -a 0 -x {1.0 3.0 -1 ------- null}
+ -t 0.308 -s 1 -d 2 -p cbr -e 500 -c 0 -i 110 -a 0 -x {1.0 3.0 108 ------- null}
- -t 0.308 -s 1 -d 2 -p cbr -e 500 -c 0 -i 110 -a 0 -x {1.0 3.0 108 ------- null}