h 0.1 0 4 tcp 40 ------- 0 0.0 3.0 0 0
h 0.2 2 4 tcp 40 ------- 0 2.0 1.0 0 1
+ 0.2 0 4 tcp 40 ------- 0 0.0 3.0 0 0
- 0.2 0 4 tcp 40 ------- 0 0.0 3.0 0 0
+ 0.3 2 4 tcp 40 ------- 0 2.0 1.0 0 1
- 0.3 2 4 tcp 40 ------- 0 2.0 1.0 0 1
r 0.30001 4 3 tcp 40 ------- 0 0.0 3.0 0 0
h 0.30001 3 4 ack 40 ------- 0 3.0 0.0 0 2
+ 0.40001 3 4 ack 40 ------- 0 3.0 0.0 0 2
- 0.40001 3 4 ack 40 ------- 0 3.0 0.0 0 2
r 0.40001 4 1 tcp 40 ------- 0 2.0 1.0 0 1
h 0.40001 1 4 ack 40 ------- 0 1.0 2.0 0 3
+ 0.50001 1 4 ack 40 ------- 0 1.0 2.0 0 3
- 0.50001 1 4 ack 40 ------- 0 1.0 2.0 0 3
r 0.500021 4 0 ack 40 ------- 0 3.0 0.0 0 2
h 0.500021 0 4 tcp 1040 ------- 0 0.0 3.0 1 4
h 0.500021 0 4 tcp 1040 ------- 0 0.0 3.0 2 5
+ 0.600021 0 4 tcp 1040 ------- 0 0.0 3.0 1 4
- 0.600021 0 4 tcp 1040 ------- 0 0.0 3.0 1 4
+ 0.600021 0 4 tcp 1040 ------- 0 0.0 3.0 2 5
r 0.600021 4 2 ack 40 ------- 0 1.0 2.0 0 3
h 0.600021 2 4 tcp 1040 ------- 0 2.0 1.0 1 6
h 0.600021 2 4 tcp 1040 ------- 0 2.0 1.0 2 7
- 0.600127 0 4 tcp 1040 ------- 0 0.0 3.0 2 5
+ 0.700021 2 4 tcp 1040 ------- 0 2.0 1.0 1 6
- 0.700021 2 4 tcp 1040 ------- 0 2.0 1.0 1 6
+ 0.700021 2 4 tcp 1040 ------- 0 2.0 1.0 2 7
- 0.700127 2 4 tcp 1040 ------- 0 2.0 1.0 2 7
r 0.70013 4 3 tcp 1040 ------- 0 0.0 3.0 1 4
h 0.70013 3 4 ack 40 ------- 0 3.0 0.0 1 8
r 0.700237 4 3 tcp 1040 ------- 0 0.0 3.0 2 5
h 0.700237 3 4 ack 40 ------- 0 3.0 0.0 2 9
+ 0.80013 3 4 ack 40 ------- 0 3.0 0.0 1 8
- 0.80013 3 4 ack 40 ------- 0 3.0 0.0 1 8
r 0.80013 4 1 tcp 1040 ------- 0 2.0 1.0 1 6
h 0.80013 1 4 ack 40 ------- 0 1.0 2.0 1 10
+ 0.800237 3 4 ack 40 ------- 0 3.0 0.0 2 9
- 0.800237 3 4 ack 40 ------- 0 3.0 0.0 2 9
r 0.800237 4 1 tcp 1040 ------- 0 2.0 1.0 2 7
h 0.800237 1 4 ack 40 ------- 0 1.0 2.0 2 11
+ 0.90013 1 4 ack 40 ------- 0 1.0 2.0 1 10
- 0.90013 1 4 ack 40 ------- 0 1.0 2.0 1 10
r 0.900141 4 0 ack 40 ------- 0 3.0 0.0 1 8
h 0.900141 0 4 tcp 1040 ------- 0 0.0 3.0 3 12
h 0.900141 0 4 tcp 1040 ------- 0 0.0 3.0 4 13
+ 0.900237 1 4 ack 40 ------- 0 1.0 2.0 2 11
- 0.900237 1 4 ack 40 ------- 0 1.0 2.0 2 11
r 0.900247 4 0 ack 40 ------- 0 3.0 0.0 2 9
h 0.900247 0 4 tcp 1040 ------- 0 0.0 3.0 5 14
h 0.900247 0 4 tcp 1040 ------- 0 0.0 3.0 6 15
+ 1.000141 0 4 tcp 1040 ------- 0 0.0 3.0 3 12
- 1.000141 0 4 tcp 1040 ------- 0 0.0 3.0 3 12
+ 1.000141 0 4 tcp 1040 ------- 0 0.0 3.0 4 13
r 1.000141 4 2 ack 40 ------- 0 1.0 2.0 1 10
h 1.000141 2 4 tcp 1040 ------- 0 2.0 1.0 3 16
h 1.000141 2 4 tcp 1040 ------- 0 2.0 1.0 4 17
+ 1.000247 0 4 tcp 1040 ------- 0 0.0 3.0 5 14
+ 1.000247 0 4 tcp 1040 ------- 0 0.0 3.0 6 15
r 1.000247 4 2 ack 40 ------- 0 1.0 2.0 2 11
h 1.000247 2 4 tcp 1040 ------- 0 2.0 1.0 5 18
h 1.000247 2 4 tcp 1040 ------- 0 2.0 1.0 6 19
- 1.000247 0 4 tcp 1040 ------- 0 0.0 3.0 4 13
- 1.000354 0 4 tcp 1040 ------- 0 0.0 3.0 5 14
- 1.00046 0 4 tcp 1040 ------- 0 0.0 3.0 6 15
+ 1.100141 2 4 tcp 1040 ------- 0 2.0 1.0 3 16
- 1.100141 2 4 tcp 1040 ------- 0 2.0 1.0 3 16
+ 1.100141 2 4 tcp 1040 ------- 0 2.0 1.0 4 17
+ 1.100247 2 4 tcp 1040 ------- 0 2.0 1.0 5 18
+ 1.100247 2 4 tcp 1040 ------- 0 2.0 1.0 6 19
- 1.100247 2 4 tcp 1040 ------- 0 2.0 1.0 4 17
r 1.10025 4 3 tcp 1040 ------- 0 0.0 3.0 3 12
h 1.10025 3 4 ack 40 ------- 0 3.0 0.0 3 20
- 1.100354 2 4 tcp 1040 ------- 0 2.0 1.0 5 18
r 1.100357 4 3 tcp 1040 ------- 0 0.0 3.0 4 13
h 1.100357 3 4 ack 40 ------- 0 3.0 0.0 4 21
- 1.10046 2 4 tcp 1040 ------- 0 2.0 1.0 6 19
r 1.100463 4 3 tcp 1040 ------- 0 0.0 3.0 5 14
h 1.100463 3 4 ack 40 ------- 0 3.0 0.0 5 22
r 1.10057 4 3 tcp 1040 ------- 0 0.0 3.0 6 15
h 1.10057 3 4 ack 40 ------- 0 3.0 0.0 6 23
+ 1.20025 3 4 ack 40 ------- 0 3.0 0.0 3 20
- 1.20025 3 4 ack 40 ------- 0 3.0 0.0 3 20
r 1.20025 4 1 tcp 1040 ------- 0 2.0 1.0 3 16
h 1.20025 1 4 ack 40 ------- 0 1.0 2.0 3 24
+ 1.200357 3 4 ack 40 ------- 0 3.0 0.0 4 21
- 1.200357 3 4 ack 40 ------- 0 3.0 0.0 4 21
r 1.200357 4 1 tcp 1040 ------- 0 2.0 1.0 4 17
h 1.200357 1 4 ack 40 ------- 0 1.0 2.0 4 25
+ 1.200463 3 4 ack 40 ------- 0 3.0 0.0 5 22
- 1.200463 3 4 ack 40 ------- 0 3.0 0.0 5 22
r 1.200463 4 1 tcp 1040 ------- 0 2.0 1.0 5 18
h 1.200463 1 4 ack 40 ------- 0 1.0 2.0 5 26
+ 1.20057 3 4 ack 40 ------- 0 3.0 0.0 6 23
- 1.20057 3 4 ack 40 ------- 0 3.0 0.0 6 23
r 1.20057 4 1 tcp 1040 ------- 0 2.0 1.0 6 19
h 1.20057 1 4 ack 40 ------- 0 1.0 2.0 6 27
+ 1.30025 1 4 ack 40 ------- 0 1.0 2.0 3 24
- 1.30025 1 4 ack 40 ------- 0 1.0 2.0 3 24
r 1.30026 4 0 ack 40 ------- 0 3.0 0.0 3 20
h 1.30026 0 4 tcp 1040 ------- 0 0.0 3.0 7 28
h 1.30026 0 4 tcp 1040 ------- 0 0.0 3.0 8 29
+ 1.300357 1 4 ack 40 ------- 0 1.0 2.0 4 25
- 1.300357 1 4 ack 40 ------- 0 1.0 2.0 4 25
r 1.300367 4 0 ack 40 ------- 0 3.0 0.0 4 21
h 1.300367 0 4 tcp 1040 ------- 0 0.0 3.0 9 30
h 1.300367 0 4 tcp 1040 ------- 0 0.0 3.0 10 31
+ 1.300463 1 4 ack 40 ------- 0 1.0 2.0 5 26
- 1.300463 1 4 ack 40 ------- 0 1.0 2.0 5 26
r 1.300474 4 0 ack 40 ------- 0 3.0 0.0 5 22
h 1.300474 0 4 tcp 1040 ------- 0 0.0 3.0 11 32
h 1.300474 0 4 tcp 1040 ------- 0 0.0 3.0 12 33
+ 1.30057 1 4 ack 40 ------- 0 1.0 2.0 6 27
- 1.30057 1 4 ack 40 ------- 0 1.0 2.0 6 27
r 1.30058 4 0 ack 40 ------- 0 3.0 0.0 6 23
h 1.30058 0 4 tcp 1040 ------- 0 0.0 3.0 13 34
h 1.30058 0 4 tcp 1040 ------- 0 0.0 3.0 14 35
+ 1.40026 0 4 tcp 1040 ------- 0 0.0 3.0 7 28
- 1.40026 0 4 tcp 1040 ------- 0 0.0 3.0 7 28
+ 1.40026 0 4 tcp 1040 ------- 0 0.0 3.0 8 29
r 1.40026 4 2 ack 40 ------- 0 1.0 2.0 3 24
h 1.40026 2 4 tcp 1040 ------- 0 2.0 1.0 7 36
h 1.40026 2 4 tcp 1040 ------- 0 2.0 1.0 8 37
+ 1.400367 0 4 tcp 1040 ------- 0 0.0 3.0 9 30
+ 1.400367 0 4 tcp 1040 ------- 0 0.0 3.0 10 31
r 1.400367 4 2 ack 40 ------- 0 1.0 2.0 4 25
h 1.400367 2 4 tcp 1040 ------- 0 2.0 1.0 9 38
h 1.400367 2 4 tcp 1040 ------- 0 2.0 1.0 10 39
- 1.400367 0 4 tcp 1040 ------- 0 0.0 3.0 8 29
+ 1.400474 0 4 tcp 1040 ------- 0 0.0 3.0 11 32
+ 1.400474 0 4 tcp 1040 ------- 0 0.0 3.0 12 33
r 1.400474 4 2 ack 40 ------- 0 1.0 2.0 5 26
h 1.400474 2 4 tcp 1040 ------- 0 2.0 1.0 11 40
h 1.400474 2 4 tcp 1040 ------- 0 2.0 1.0 12 41
- 1.400474 0 4 tcp 1040 ------- 0 0.0 3.0 9 30
+ 1.40058 0 4 tcp 1040 ------- 0 0.0 3.0 13 34
+ 1.40058 0 4 tcp 1040 ------- 0 0.0 3.0 14 35
r 1.40058 4 2 ack 40 ------- 0 1.0 2.0 6 27
h 1.40058 2 4 tcp 1040 ------- 0 2.0 1.0 13 42
h 1.40058 2 4 tcp 1040 ------- 0 2.0 1.0 14 43
- 1.40058 0 4 tcp 1040 ------- 0 0.0 3.0 10 31
- 1.400687 0 4 tcp 1040 ------- 0 0.0 3.0 11 32
- 1.400793 0 4 tcp 1040 ------- 0 0.0 3.0 12 33
- 1.4009 0 4 tcp 1040 ------- 0 0.0 3.0 13 34
- 1.401007 0 4 tcp 1040 ------- 0 0.0 3.0 14 35
+ 1.50026 2 4 tcp 1040 ------- 0 2.0 1.0 7 36
- 1.50026 2 4 tcp 1040 ------- 0 2.0 1.0 7 36
+ 1.50026 2 4 tcp 1040 ------- 0 2.0 1.0 8 37
+ 1.500367 2 4 tcp 1040 ------- 0 2.0 1.0 9 38
+ 1.500367 2 4 tcp 1040 ------- 0 2.0 1.0 10 39
- 1.500367 2 4 tcp 1040 ------- 0 2.0 1.0 8 37
r 1.50037 4 3 tcp 1040 ------- 0 0.0 3.0 7 28
h 1.50037 3 4 ack 40 ------- 0 3.0 0.0 7 44
+ 1.500474 2 4 tcp 1040 ------- 0 2.0 1.0 11 40
+ 1.500474 2 4 tcp 1040 ------- 0 2.0 1.0 12 41
- 1.500474 2 4 tcp 1040 ------- 0 2.0 1.0 9 38
r 1.500476 4 3 tcp 1040 ------- 0 0.0 3.0 8 29
h 1.500476 3 4 ack 40 ------- 0 3.0 0.0 8 45
+ 1.50058 2 4 tcp 1040 ------- 0 2.0 1.0 13 42
+ 1.50058 2 4 tcp 1040 ------- 0 2.0 1.0 14 43
- 1.50058 2 4 tcp 1040 ------- 0 2.0 1.0 10 39
r 1.500583 4 3 tcp 1040 ------- 0 0.0 3.0 9 30
h 1.500583 3 4 ack 40 ------- 0 3.0 0.0 9 46
- 1.500687 2 4 tcp 1040 ------- 0 2.0 1.0 11 40
r 1.50069 4 3 tcp 1040 ------- 0 0.0 3.0 10 31
h 1.50069 3 4 ack 40 ------- 0 3.0 0.0 10 47
- 1.500793 2 4 tcp 1040 ------- 0 2.0 1.0 12 41
r 1.500796 4 3 tcp 1040 ------- 0 0.0 3.0 11 32
h 1.500796 3 4 ack 40 ------- 0 3.0 0.0 11 48
- 1.5009 2 4 tcp 1040 ------- 0 2.0 1.0 13 42
r 1.500903 4 3 tcp 1040 ------- 0 0.0 3.0 12 33
h 1.500903 3 4 ack 40 ------- 0 3.0 0.0 12 49
- 1.501007 2 4 tcp 1040 ------- 0 2.0 1.0 14 43
r 1.501009 4 3 tcp 1040 ------- 0 0.0 3.0 13 34
h 1.501009 3 4 ack 40 ------- 0 3.0 0.0 13 50
r 1.501116 4 3 tcp 1040 ------- 0 0.0 3.0 14 35
h 1.501116 3 4 ack 40 ------- 0 3.0 0.0 14 51
+ 1.60037 3 4 ack 40 ------- 0 3.0 0.0 7 44
- 1.60037 3 4 ack 40 ------- 0 3.0 0.0 7 44
r 1.60037 4 1 tcp 1040 ------- 0 2.0 1.0 7 36
h 1.60037 1 4 ack 40 ------- 0 1.0 2.0 7 52
+ 1.600476 3 4 ack 40 ------- 0 3.0 0.0 8 45
- 1.600476 3 4 ack 40 ------- 0 3.0 0.0 8 45
r 1.600476 4 1 tcp 1040 ------- 0 2.0 1.0 8 37
h 1.600476 1 4 ack 40 ------- 0 1.0 2.0 8 53
+ 1.600583 3 4 ack 40 ------- 0 3.0 0.0 9 46
- 1.600583 3 4 ack 40 ------- 0 3.0 0.0 9 46
r 1.600583 4 1 tcp 1040 ------- 0 2.0 1.0 9 38
h 1.600583 1 4 ack 40 ------- 0 1.0 2.0 9 54
+ 1.60069 3 4 ack 40 ------- 0 3.0 0.0 10 47
- 1.60069 3 4 ack 40 ------- 0 3.0 0.0 10 47
r 1.60069 4 1 tcp 1040 ------- 0 2.0 1.0 10 39
h 1.60069 1 4 ack 40 ------- 0 1.0 2.0 10 55
+ 1.600796 3 4 ack 40 ------- 0 3.0 0.0 11 48
- 1.600796 3 4 ack 40 ------- 0 3.0 0.0 11 48
r 1.600796 4 1 tcp 1040 ------- 0 2.0 1.0 11 40
h 1.600796 1 4 ack 40 ------- 0 1.0 2.0 11 56
+ 1.600903 3 4 ack 40 ------- 0 3.0 0.0 12 49
- 1.600903 3 4 ack 40 ------- 0 3.0 0.0 12 49
r 1.600903 4 1 tcp 1040 ------- 0 2.0 1.0 12 41
h 1.600903 1 4 ack 40 ------- 0 1.0 2.0 12 57
+ 1.601009 3 4 ack 40 ------- 0 3.0 0.0 13 50
- 1.601009 3 4 ack 40 ------- 0 3.0 0.0 13 50
r 1.601009 4 1 tcp 1040 ------- 0 2.0 1.0 13 42
h 1.601009 1 4 ack 40 ------- 0 1.0 2.0 13 58
+ 1.601116 3 4 ack 40 ------- 0 3.0 0.0 14 51
- 1.601116 3 4 ack 40 ------- 0 3.0 0.0 14 51
r 1.601116 4 1 tcp 1040 ------- 0 2.0 1.0 14 43
h 1.601116 1 4 ack 40 ------- 0 1.0 2.0 14 59
+ 1.70037 1 4 ack 40 ------- 0 1.0 2.0 7 52
- 1.70037 1 4 ack 40 ------- 0 1.0 2.0 7 52
r 1.70038 4 0 ack 40 ------- 0 3.0 0.0 7 44
+ 1.700476 1 4 ack 40 ------- 0 1.0 2.0 8 53
- 1.700476 1 4 ack 40 ------- 0 1.0 2.0 8 53
r 1.700487 4 0 ack 40 ------- 0 3.0 0.0 8 45
+ 1.700583 1 4 ack 40 ------- 0 1.0 2.0 9 54
- 1.700583 1 4 ack 40 ------- 0 1.0 2.0 9 54
r 1.700593 4 0 ack 40 ------- 0 3.0 0.0 9 46
+ 1.70069 1 4 ack 40 ------- 0 1.0 2.0 10 55
- 1.70069 1 4 ack 40 ------- 0 1.0 2.0 10 55
r 1.7007 4 0 ack 40 ------- 0 3.0 0.0 10 47
+ 1.700796 1 4 ack 40 ------- 0 1.0 2.0 11 56
- 1.700796 1 4 ack 40 ------- 0 1.0 2.0 11 56
r 1.700807 4 0 ack 40 ------- 0 3.0 0.0 11 48
+ 1.700903 1 4 ack 40 ------- 0 1.0 2.0 12 57
- 1.700903 1 4 ack 40 ------- 0 1.0 2.0 12 57
r 1.700913 4 0 ack 40 ------- 0 3.0 0.0 12 49
+ 1.701009 1 4 ack 40 ------- 0 1.0 2.0 13 58
- 1.701009 1 4 ack 40 ------- 0 1.0 2.0 13 58
r 1.70102 4 0 ack 40 ------- 0 3.0 0.0 13 50
+ 1.701116 1 4 ack 40 ------- 0 1.0 2.0 14 59
- 1.701116 1 4 ack 40 ------- 0 1.0 2.0 14 59
r 1.701126 4 0 ack 40 ------- 0 3.0 0.0 14 51
r 1.80038 4 2 ack 40 ------- 0 1.0 2.0 7 52
h 1.80038 2 4 tcp 1040 ------- 0 2.0 1.0 15 60
h 1.80038 2 4 tcp 1040 ------- 0 2.0 1.0 16 61
r 1.800487 4 2 ack 40 ------- 0 1.0 2.0 8 53
h 1.800487 2 4 tcp 1040 ------- 0 2.0 1.0 17 62
h 1.800487 2 4 tcp 1040 ------- 0 2.0 1.0 18 63
r 1.800593 4 2 ack 40 ------- 0 1.0 2.0 9 54
h 1.800593 2 4 tcp 1040 ------- 0 2.0 1.0 19 64
h 1.800593 2 4 tcp 1040 ------- 0 2.0 1.0 20 65
r 1.8007 4 2 ack 40 ------- 0 1.0 2.0 10 55
h 1.8007 2 4 tcp 1040 ------- 0 2.0 1.0 21 66
h 1.8007 2 4 tcp 1040 ------- 0 2.0 1.0 22 67
r 1.800807 4 2 ack 40 ------- 0 1.0 2.0 11 56
h 1.800807 2 4 tcp 1040 ------- 0 2.0 1.0 23 68
h 1.800807 2 4 tcp 1040 ------- 0 2.0 1.0 24 69
r 1.800913 4 2 ack 40 ------- 0 1.0 2.0 12 57
h 1.800913 2 4 tcp 1040 ------- 0 2.0 1.0 25 70
h 1.800913 2 4 tcp 1040 ------- 0 2.0 1.0 26 71
r 1.80102 4 2 ack 40 ------- 0 1.0 2.0 13 58
h 1.80102 2 4 tcp 1040 ------- 0 2.0 1.0 27 72
h 1.80102 2 4 tcp 1040 ------- 0 2.0 1.0 28 73
r 1.801126 4 2 ack 40 ------- 0 1.0 2.0 14 59
h 1.801126 2 4 tcp 1040 ------- 0 2.0 1.0 29 74
h 1.801126 2 4 tcp 1040 ------- 0 2.0 1.0 30 75
+ 1.90038 2 4 tcp 1040 ------- 0 2.0 1.0 15 60
- 1.90038 2 4 tcp 1040 ------- 0 2.0 1.0 15 60
+ 1.90038 2 4 tcp 1040 ------- 0 2.0 1.0 16 61
+ 1.900487 2 4 tcp 1040 ------- 0 2.0 1.0 17 62
+ 1.900487 2 4 tcp 1040 ------- 0 2.0 1.0 18 63
- 1.900487 2 4 tcp 1040 ------- 0 2.0 1.0 16 61
+ 1.900593 2 4 tcp 1040 ------- 0 2.0 1.0 19 64
+ 1.900593 2 4 tcp 1040 ------- 0 2.0 1.0 20 65
- 1.900593 2 4 tcp 1040 ------- 0 2.0 1.0 17 62
+ 1.9007 2 4 tcp 1040 ------- 0 2.0 1.0 21 66
+ 1.9007 2 4 tcp 1040 ------- 0 2.0 1.0 22 67
- 1.9007 2 4 tcp 1040 ------- 0 2.0 1.0 18 63
+ 1.900807 2 4 tcp 1040 ------- 0 2.0 1.0 23 68
+ 1.900807 2 4 tcp 1040 ------- 0 2.0 1.0 24 69
- 1.900807 2 4 tcp 1040 ------- 0 2.0 1.0 19 64
+ 1.900913 2 4 tcp 1040 ------- 0 2.0 1.0 25 70
+ 1.900913 2 4 tcp 1040 ------- 0 2.0 1.0 26 71
- 1.900913 2 4 tcp 1040 ------- 0 2.0 1.0 20 65
+ 1.90102 2 4 tcp 1040 ------- 0 2.0 1.0 27 72
+ 1.90102 2 4 tcp 1040 ------- 0 2.0 1.0 28 73
- 1.90102 2 4 tcp 1040 ------- 0 2.0 1.0 21 66
+ 1.901126 2 4 tcp 1040 ------- 0 2.0 1.0 29 74
+ 1.901126 2 4 tcp 1040 ------- 0 2.0 1.0 30 75
- 1.901126 2 4 tcp 1040 ------- 0 2.0 1.0 22 67
- 1.901233 2 4 tcp 1040 ------- 0 2.0 1.0 23 68
- 1.90134 2 4 tcp 1040 ------- 0 2.0 1.0 24 69
- 1.901446 2 4 tcp 1040 ------- 0 2.0 1.0 25 70
- 1.901553 2 4 tcp 1040 ------- 0 2.0 1.0 26 71
- 1.901659 2 4 tcp 1040 ------- 0 2.0 1.0 27 72
- 1.901766 2 4 tcp 1040 ------- 0 2.0 1.0 28 73
- 1.901873 2 4 tcp 1040 ------- 0 2.0 1.0 29 74
- 1.901979 2 4 tcp 1040 ------- 0 2.0 1.0 30 75
h 2 0 4 tcp 1040 ------- 0 0.0 3.0 15 76
h 2 0 4 tcp 1040 ------- 0 0.0 3.0 16 77
h 2 0 4 tcp 1040 ------- 0 0.0 3.0 17 78
h 2 0 4 tcp 1040 ------- 0 0.0 3.0 18 79
h 2 0 4 tcp 1040 ------- 0 0.0 3.0 19 80
h 2 0 4 tcp 1040 ------- 0 0.0 3.0 20 81
h 2 0 4 tcp 1040 ------- 0 0.0 3.0 21 82
h 2 0 4 tcp 1040 ------- 0 0.0 3.0 22 83
h 2 0 4 tcp 1040 ------- 0 0.0 3.0 23 84
h 2 0 4 tcp 1040 ------- 0 0.0 3.0 24 85
h 2 0 4 tcp 1040 ------- 0 0.0 3.0 25 86
h 2 0 4 tcp 1040 ------- 0 0.0 3.0 26 87
h 2 0 4 tcp 1040 ------- 0 0.0 3.0 27 88
h 2 0 4 tcp 1040 ------- 0 0.0 3.0 28 89
h 2 0 4 tcp 1040 ------- 0 0.0 3.0 29 90
h 2 0 4 tcp 1040 ------- 0 0.0 3.0 30 91
r 2.00049 4 1 tcp 1040 ------- 0 2.0 1.0 15 60
h 2.00049 1 4 ack 40 ------- 0 1.0 2.0 15 92
r 2.000596 4 1 tcp 1040 ------- 0 2.0 1.0 16 61
h 2.000596 1 4 ack 40 ------- 0 1.0 2.0 16 93
r 2.000703 4 1 tcp 1040 ------- 0 2.0 1.0 17 62
h 2.000703 1 4 ack 40 ------- 0 1.0 2.0 17 94
r 2.000809 4 1 tcp 1040 ------- 0 2.0 1.0 18 63
h 2.000809 1 4 ack 40 ------- 0 1.0 2.0 18 95
r 2.000916 4 1 tcp 1040 ------- 0 2.0 1.0 19 64
h 2.000916 1 4 ack 40 ------- 0 1.0 2.0 19 96
r 2.001023 4 1 tcp 1040 ------- 0 2.0 1.0 20 65
h 2.001023 1 4 ack 40 ------- 0 1.0 2.0 20 97
r 2.001129 4 1 tcp 1040 ------- 0 2.0 1.0 21 66
h 2.001129 1 4 ack 40 ------- 0 1.0 2.0 21 98
r 2.001236 4 1 tcp 1040 ------- 0 2.0 1.0 22 67
h 2.001236 1 4 ack 40 ------- 0 1.0 2.0 22 99
r 2.001342 4 1 tcp 1040 ------- 0 2.0 1.0 23 68
h 2.001342 1 4 ack 40 ------- 0 1.0 2.0 23 100
r 2.001449 4 1 tcp 1040 ------- 0 2.0 1.0 24 69
h 2.001449 1 4 ack 40 ------- 0 1.0 2.0 24 101
r 2.001556 4 1 tcp 1040 ------- 0 2.0 1.0 25 70
h 2.001556 1 4 ack 40 ------- 0 1.0 2.0 25 102
r 2.001662 4 1 tcp 1040 ------- 0 2.0 1.0 26 71
h 2.001662 1 4 ack 40 ------- 0 1.0 2.0 26 103
r 2.001769 4 1 tcp 1040 ------- 0 2.0 1.0 27 72
h 2.001769 1 4 ack 40 ------- 0 1.0 2.0 27 104
r 2.001875 4 1 tcp 1040 ------- 0 2.0 1.0 28 73
h 2.001875 1 4 ack 40 ------- 0 1.0 2.0 28 105
r 2.001982 4 1 tcp 1040 ------- 0 2.0 1.0 29 74
h 2.001982 1 4 ack 40 ------- 0 1.0 2.0 29 106
r 2.002089 4 1 tcp 1040 ------- 0 2.0 1.0 30 75
h 2.002089 1 4 ack 40 ------- 0 1.0 2.0 30 107
+ 2.1 0 4 tcp 1040 ------- 0 0.0 3.0 15 76
- 2.1 0 4 tcp 1040 ------- 0 0.0 3.0 15 76
+ 2.1 0 4 tcp 1040 ------- 0 0.0 3.0 16 77
+ 2.1 0 4 tcp 1040 ------- 0 0.0 3.0 17 78
+ 2.1 0 4 tcp 1040 ------- 0 0.0 3.0 18 79
+ 2.1 0 4 tcp 1040 ------- 0 0.0 3.0 19 80
+ 2.1 0 4 tcp 1040 ------- 0 0.0 3.0 20 81
+ 2.1 0 4 tcp 1040 ------- 0 0.0 3.0 21 82
+ 2.1 0 4 tcp 1040 ------- 0 0.0 3.0 22 83
+ 2.1 0 4 tcp 1040 ------- 0 0.0 3.0 23 84
+ 2.1 0 4 tcp 1040 ------- 0 0.0 3.0 24 85
+ 2.1 0 4 tcp 1040 ------- 0 0.0 3.0 25 86
+ 2.1 0 4 tcp 1040 ------- 0 0.0 3.0 26 87
+ 2.1 0 4 tcp 1040 ------- 0 0.0 3.0 27 88
+ 2.1 0 4 tcp 1040 ------- 0 0.0 3.0 28 89
+ 2.1 0 4 tcp 1040 ------- 0 0.0 3.0 29 90
+ 2.1 0 4 tcp 1040 ------- 0 0.0 3.0 30 91
- 2.100107 0 4 tcp 1040 ------- 0 0.0 3.0 16 77
- 2.100213 0 4 tcp 1040 ------- 0 0.0 3.0 17 78
- 2.10032 0 4 tcp 1040 ------- 0 0.0 3.0 18 79
- 2.100426 0 4 tcp 1040 ------- 0 0.0 3.0 19 80
+ 2.10049 1 4 ack 40 ------- 0 1.0 2.0 15 92
- 2.10049 1 4 ack 40 ------- 0 1.0 2.0 15 92
- 2.100533 0 4 tcp 1040 ------- 0 0.0 3.0 20 81
+ 2.100596 1 4 ack 40 ------- 0 1.0 2.0 16 93
- 2.100664 0 4 tcp 1040 ------- 0 0.0 3.0 21 82
+ 2.100703 1 4 ack 40 ------- 0 1.0 2.0 17 94
- 2.100807 0 4 tcp 1040 ------- 0 0.0 3.0 22 83
+ 2.100809 1 4 ack 40 ------- 0 1.0 2.0 18 95
+ 2.100916 1 4 ack 40 ------- 0 1.0 2.0 19 96
- 2.100923 0 4 tcp 1040 ------- 0 0.0 3.0 23 84
+ 2.101023 1 4 ack 40 ------- 0 1.0 2.0 20 97
- 2.10103 0 4 tcp 1040 ------- 0 0.0 3.0 24 85
+ 2.101129 1 4 ack 40 ------- 0 1.0 2.0 21 98
- 2.101146 0 4 tcp 1040 ------- 0 0.0 3.0 25 86
+ 2.101236 1 4 ack 40 ------- 0 1.0 2.0 22 99
- 2.101253 0 4 tcp 1040 ------- 0 0.0 3.0 26 87
+ 2.101342 1 4 ack 40 ------- 0 1.0 2.0 23 100
- 2.101359 0 4 tcp 1040 ------- 0 0.0 3.0 27 88
+ 2.101449 1 4 ack 40 ------- 0 1.0 2.0 24 101
- 2.101482 0 4 tcp 1040 ------- 0 0.0 3.0 28 89
+ 2.101556 1 4 ack 40 ------- 0 1.0 2.0 25 102
- 2.101588 0 4 tcp 1040 ------- 0 0.0 3.0 29 90
+ 2.101662 1 4 ack 40 ------- 0 1.0 2.0 26 103
- 2.101705 0 4 tcp 1040 ------- 0 0.0 3.0 30 91
+ 2.101769 1 4 ack 40 ------- 0 1.0 2.0 27 104
+ 2.101875 1 4 ack 40 ------- 0 1.0 2.0 28 105
+ 2.101982 1 4 ack 40 ------- 0 1.0 2.0 29 106
+ 2.102089 1 4 ack 40 ------- 0 1.0 2.0 30 107
- 2.10283 1 4 ack 40 ------- 0 1.0 2.0 16 93
- 2.102838 1 4 ack 40 ------- 0 1.0 2.0 17 94
- 2.102846 1 4 ack 40 ------- 0 1.0 2.0 18 95
- 2.102853 1 4 ack 40 ------- 0 1.0 2.0 19 96
- 2.102861 1 4 ack 40 ------- 0 1.0 2.0 20 97
- 2.102868 1 4 ack 40 ------- 0 1.0 2.0 21 98
- 2.102876 1 4 ack 40 ------- 0 1.0 2.0 22 99
- 2.102884 1 4 ack 40 ------- 0 1.0 2.0 23 100
- 2.102891 1 4 ack 40 ------- 0 1.0 2.0 24 101
- 2.102899 1 4 ack 40 ------- 0 1.0 2.0 25 102
- 2.102906 1 4 ack 40 ------- 0 1.0 2.0 26 103
- 2.102914 1 4 ack 40 ------- 0 1.0 2.0 27 104
- 2.102922 1 4 ack 40 ------- 0 1.0 2.0 28 105
- 2.102929 1 4 ack 40 ------- 0 1.0 2.0 29 106
- 2.102937 1 4 ack 40 ------- 0 1.0 2.0 30 107
r 2.200109 4 3 tcp 1040 ------- 0 0.0 3.0 15 76
h 2.200109 3 4 ack 40 ------- 0 3.0 0.0 15 108
r 2.200216 4 3 tcp 1040 ------- 0 0.0 3.0 16 77
h 2.200216 3 4 ack 40 ------- 0 3.0 0.0 16 109
r 2.200323 4 3 tcp 1040 ------- 0 0.0 3.0 17 78
h 2.200323 3 4 ack 40 ------- 0 3.0 0.0 17 110
r 2.200429 4 3 tcp 1040 ------- 0 0.0 3.0 18 79
h 2.200429 3 4 ack 40 ------- 0 3.0 0.0 18 111
r 2.200536 4 3 tcp 1040 ------- 0 0.0 3.0 19 80
h 2.200536 3 4 ack 40 ------- 0 3.0 0.0 19 112
r 2.200666 4 3 tcp 1040 ------- 0 0.0 3.0 20 81
h 2.200666 3 4 ack 40 ------- 0 3.0 0.0 20 113
r 2.20081 4 3 tcp 1040 ------- 0 0.0 3.0 21 82
h 2.20081 3 4 ack 40 ------- 0 3.0 0.0 21 114
r 2.200926 4 3 tcp 1040 ------- 0 0.0 3.0 22 83
h 2.200926 3 4 ack 40 ------- 0 3.0 0.0 22 115
r 2.201033 4 3 tcp 1040 ------- 0 0.0 3.0 23 84
h 2.201033 3 4 ack 40 ------- 0 3.0 0.0 23 116
r 2.201149 4 3 tcp 1040 ------- 0 0.0 3.0 24 85
h 2.201149 3 4 ack 40 ------- 0 3.0 0.0 24 117
r 2.201255 4 3 tcp 1040 ------- 0 0.0 3.0 25 86
h 2.201255 3 4 ack 40 ------- 0 3.0 0.0 25 118
r 2.201362 4 3 tcp 1040 ------- 0 0.0 3.0 26 87
h 2.201362 3 4 ack 40 ------- 0 3.0 0.0 26 119
r 2.201485 4 3 tcp 1040 ------- 0 0.0 3.0 27 88
h 2.201485 3 4 ack 40 ------- 0 3.0 0.0 27 120
r 2.201591 4 3 tcp 1040 ------- 0 0.0 3.0 28 89
h 2.201591 3 4 ack 40 ------- 0 3.0 0.0 28 121
r 2.201707 4 3 tcp 1040 ------- 0 0.0 3.0 29 90
h 2.201707 3 4 ack 40 ------- 0 3.0 0.0 29 122
r 2.201814 4 3 tcp 1040 ------- 0 0.0 3.0 30 91
h 2.201814 3 4 ack 40 ------- 0 3.0 0.0 30 123
r 2.202833 4 2 ack 40 ------- 0 1.0 2.0 15 92
r 2.202841 4 2 ack 40 ------- 0 1.0 2.0 16 93
r 2.202848 4 2 ack 40 ------- 0 1.0 2.0 17 94
r 2.202856 4 2 ack 40 ------- 0 1.0 2.0 18 95
r 2.202864 4 2 ack 40 ------- 0 1.0 2.0 19 96
r 2.202871 4 2 ack 40 ------- 0 1.0 2.0 20 97
r 2.202879 4 2 ack 40 ------- 0 1.0 2.0 21 98
r 2.202886 4 2 ack 40 ------- 0 1.0 2.0 22 99
r 2.202894 4 2 ack 40 ------- 0 1.0 2.0 23 100
r 2.202902 4 2 ack 40 ------- 0 1.0 2.0 24 101
r 2.202909 4 2 ack 40 ------- 0 1.0 2.0 25 102
r 2.202917 4 2 ack 40 ------- 0 1.0 2.0 26 103
r 2.202924 4 2 ack 40 ------- 0 1.0 2.0 27 104
r 2.202932 4 2 ack 40 ------- 0 1.0 2.0 28 105
r 2.20294 4 2 ack 40 ------- 0 1.0 2.0 29 106
r 2.202947 4 2 ack 40 ------- 0 1.0 2.0 30 107
+ 2.300109 3 4 ack 40 ------- 0 3.0 0.0 15 108
- 2.300109 3 4 ack 40 ------- 0 3.0 0.0 15 108
+ 2.300216 3 4 ack 40 ------- 0 3.0 0.0 16 109
- 2.300216 3 4 ack 40 ------- 0 3.0 0.0 16 109
+ 2.300323 3 4 ack 40 ------- 0 3.0 0.0 17 110
- 2.300323 3 4 ack 40 ------- 0 3.0 0.0 17 110
+ 2.300429 3 4 ack 40 ------- 0 3.0 0.0 18 111
- 2.300429 3 4 ack 40 ------- 0 3.0 0.0 18 111
+ 2.300536 3 4 ack 40 ------- 0 3.0 0.0 19 112
- 2.300536 3 4 ack 40 ------- 0 3.0 0.0 19 112
+ 2.300666 3 4 ack 40 ------- 0 3.0 0.0 20 113
- 2.300666 3 4 ack 40 ------- 0 3.0 0.0 20 113
+ 2.30081 3 4 ack 40 ------- 0 3.0 0.0 21 114
- 2.30081 3 4 ack 40 ------- 0 3.0 0.0 21 114
+ 2.300926 3 4 ack 40 ------- 0 3.0 0.0 22 115
- 2.300926 3 4 ack 40 ------- 0 3.0 0.0 22 115
+ 2.301033 3 4 ack 40 ------- 0 3.0 0.0 23 116
- 2.301033 3 4 ack 40 ------- 0 3.0 0.0 23 116
+ 2.301149 3 4 ack 40 ------- 0 3.0 0.0 24 117
- 2.301149 3 4 ack 40 ------- 0 3.0 0.0 24 117
+ 2.301255 3 4 ack 40 ------- 0 3.0 0.0 25 118
- 2.301255 3 4 ack 40 ------- 0 3.0 0.0 25 118
+ 2.301362 3 4 ack 40 ------- 0 3.0 0.0 26 119
- 2.301362 3 4 ack 40 ------- 0 3.0 0.0 26 119
+ 2.301485 3 4 ack 40 ------- 0 3.0 0.0 27 120
- 2.301485 3 4 ack 40 ------- 0 3.0 0.0 27 120
+ 2.301591 3 4 ack 40 ------- 0 3.0 0.0 28 121
- 2.301591 3 4 ack 40 ------- 0 3.0 0.0 28 121
+ 2.301707 3 4 ack 40 ------- 0 3.0 0.0 29 122
- 2.301707 3 4 ack 40 ------- 0 3.0 0.0 29 122
+ 2.301814 3 4 ack 40 ------- 0 3.0 0.0 30 123
- 2.301814 3 4 ack 40 ------- 0 3.0 0.0 30 123
r 2.40012 4 0 ack 40 ------- 0 3.0 0.0 15 108
h 2.40012 0 4 tcp 1040 ------- 0 0.0 3.0 31 124
h 2.40012 0 4 tcp 1040 ------- 0 0.0 3.0 32 125
r 2.400226 4 0 ack 40 ------- 0 3.0 0.0 16 109
h 2.400226 0 4 tcp 1040 ------- 0 0.0 3.0 33 126
h 2.400226 0 4 tcp 1040 ------- 0 0.0 3.0 34 127
r 2.400333 4 0 ack 40 ------- 0 3.0 0.0 17 110
h 2.400333 0 4 tcp 1040 ------- 0 0.0 3.0 35 128
h 2.400333 0 4 tcp 1040 ------- 0 0.0 3.0 36 129
r 2.40044 4 0 ack 40 ------- 0 3.0 0.0 18 111
h 2.40044 0 4 tcp 1040 ------- 0 0.0 3.0 37 130
h 2.40044 0 4 tcp 1040 ------- 0 0.0 3.0 38 131
r 2.400546 4 0 ack 40 ------- 0 3.0 0.0 19 112
h 2.400546 0 4 tcp 1040 ------- 0 0.0 3.0 39 132
r 2.400677 4 0 ack 40 ------- 0 3.0 0.0 20 113
h 2.400677 0 4 tcp 1040 ------- 0 0.0 3.0 40 133
r 2.40082 4 0 ack 40 ------- 0 3.0 0.0 21 114
h 2.40082 0 4 tcp 1040 ------- 0 0.0 3.0 41 134
r 2.400936 4 0 ack 40 ------- 0 3.0 0.0 22 115
h 2.400936 0 4 tcp 1040 ------- 0 0.0 3.0 42 135
r 2.401043 4 0 ack 40 ------- 0 3.0 0.0 23 116
h 2.401043 0 4 tcp 1040 ------- 0 0.0 3.0 43 136
r 2.401159 4 0 ack 40 ------- 0 3.0 0.0 24 117
h 2.401159 0 4 tcp 1040 ------- 0 0.0 3.0 44 137
r 2.401266 4 0 ack 40 ------- 0 3.0 0.0 25 118
h 2.401266 0 4 tcp 1040 ------- 0 0.0 3.0 45 138
r 2.401372 4 0 ack 40 ------- 0 3.0 0.0 26 119
h 2.401372 0 4 tcp 1040 ------- 0 0.0 3.0 46 139
r 2.401495 4 0 ack 40 ------- 0 3.0 0.0 27 120
h 2.401495 0 4 tcp 1040 ------- 0 0.0 3.0 47 140
r 2.401602 4 0 ack 40 ------- 0 3.0 0.0 28 121
h 2.401602 0 4 tcp 1040 ------- 0 0.0 3.0 48 141
r 2.401718 4 0 ack 40 ------- 0 3.0 0.0 29 122
h 2.401718 0 4 tcp 1040 ------- 0 0.0 3.0 49 142
r 2.401824 4 0 ack 40 ------- 0 3.0 0.0 30 123
h 2.401824 0 4 tcp 1040 ------- 0 0.0 3.0 50 143
h 2.5 2 4 tcp 1040 ------- 0 2.0 1.0 31 144
h 2.5 2 4 tcp 1040 ------- 0 2.0 1.0 32 145
h 2.5 2 4 tcp 1040 ------- 0 2.0 1.0 33 146
h 2.5 2 4 tcp 1040 ------- 0 2.0 1.0 34 147
h 2.5 2 4 tcp 1040 ------- 0 2.0 1.0 35 148
h 2.5 2 4 tcp 1040 ------- 0 2.0 1.0 36 149
h 2.5 2 4 tcp 1040 ------- 0 2.0 1.0 37 150
h 2.5 2 4 tcp 1040 ------- 0 2.0 1.0 38 151
h 2.5 2 4 tcp 1040 ------- 0 2.0 1.0 39 152
h 2.5 2 4 tcp 1040 ------- 0 2.0 1.0 40 153
h 2.5 2 4 tcp 1040 ------- 0 2.0 1.0 41 154
h 2.5 2 4 tcp 1040 ------- 0 2.0 1.0 42 155
h 2.5 2 4 tcp 1040 ------- 0 2.0 1.0 43 156
h 2.5 2 4 tcp 1040 ------- 0 2.0 1.0 44 157
h 2.5 2 4 tcp 1040 ------- 0 2.0 1.0 45 158
h 2.5 2 4 tcp 1040 ------- 0 2.0 1.0 46 159
h 2.5 2 4 tcp 1040 ------- 0 2.0 1.0 47 160
h 2.5 2 4 tcp 1040 ------- 0 2.0 1.0 48 161
h 2.5 2 4 tcp 1040 ------- 0 2.0 1.0 49 162
h 2.5 2 4 tcp 1040 ------- 0 2.0 1.0 50 163
+ 2.50012 0 4 tcp 1040 ------- 0 0.0 3.0 31 124
- 2.50012 0 4 tcp 1040 ------- 0 0.0 3.0 31 124
+ 2.50012 0 4 tcp 1040 ------- 0 0.0 3.0 32 125
+ 2.500226 0 4 tcp 1040 ------- 0 0.0 3.0 33 126
+ 2.500226 0 4 tcp 1040 ------- 0 0.0 3.0 34 127
- 2.500226 0 4 tcp 1040 ------- 0 0.0 3.0 32 125
+ 2.500333 0 4 tcp 1040 ------- 0 0.0 3.0 35 128
+ 2.500333 0 4 tcp 1040 ------- 0 0.0 3.0 36 129
- 2.500333 0 4 tcp 1040 ------- 0 0.0 3.0 33 126
+ 2.50044 0 4 tcp 1040 ------- 0 0.0 3.0 37 130
+ 2.50044 0 4 tcp 1040 ------- 0 0.0 3.0 38 131
- 2.50044 0 4 tcp 1040 ------- 0 0.0 3.0 34 127
+ 2.500546 0 4 tcp 1040 ------- 0 0.0 3.0 39 132
- 2.500546 0 4 tcp 1040 ------- 0 0.0 3.0 35 128
- 2.500653 0 4 tcp 1040 ------- 0 0.0 3.0 36 129
+ 2.500677 0 4 tcp 1040 ------- 0 0.0 3.0 40 133
- 2.500759 0 4 tcp 1040 ------- 0 0.0 3.0 37 130
+ 2.50082 0 4 tcp 1040 ------- 0 0.0 3.0 41 134
- 2.500866 0 4 tcp 1040 ------- 0 0.0 3.0 38 131
+ 2.500936 0 4 tcp 1040 ------- 0 0.0 3.0 42 135
- 2.500973 0 4 tcp 1040 ------- 0 0.0 3.0 39 132
+ 2.501043 0 4 tcp 1040 ------- 0 0.0 3.0 43 136
- 2.501079 0 4 tcp 1040 ------- 0 0.0 3.0 40 133
+ 2.501159 0 4 tcp 1040 ------- 0 0.0 3.0 44 137
- 2.501186 0 4 tcp 1040 ------- 0 0.0 3.0 41 134
+ 2.501266 0 4 tcp 1040 ------- 0 0.0 3.0 45 138
- 2.501292 0 4 tcp 1040 ------- 0 0.0 3.0 42 135
+ 2.501372 0 4 tcp 1040 ------- 0 0.0 3.0 46 139
- 2.501399 0 4 tcp 1040 ------- 0 0.0 3.0 43 136
+ 2.501495 0 4 tcp 1040 ------- 0 0.0 3.0 47 140
- 2.501506 0 4 tcp 1040 ------- 0 0.0 3.0 44 137
+ 2.501602 0 4 tcp 1040 ------- 0 0.0 3.0 48 141
- 2.501612 0 4 tcp 1040 ------- 0 0.0 3.0 45 138
+ 2.501718 0 4 tcp 1040 ------- 0 0.0 3.0 49 142
- 2.501719 0 4 tcp 1040 ------- 0 0.0 3.0 46 139
+ 2.501824 0 4 tcp 1040 ------- 0 0.0 3.0 50 143
- 2.501825 0 4 tcp 1040 ------- 0 0.0 3.0 47 140
- 2.501932 0 4 tcp 1040 ------- 0 0.0 3.0 48 141
- 2.502039 0 4 tcp 1040 ------- 0 0.0 3.0 49 142
- 2.502145 0 4 tcp 1040 ------- 0 0.0 3.0 50 143
+ 2.6 2 4 tcp 1040 ------- 0 2.0 1.0 31 144
- 2.6 2 4 tcp 1040 ------- 0 2.0 1.0 31 144
+ 2.6 2 4 tcp 1040 ------- 0 2.0 1.0 32 145
+ 2.6 2 4 tcp 1040 ------- 0 2.0 1.0 33 146
+ 2.6 2 4 tcp 1040 ------- 0 2.0 1.0 34 147
+ 2.6 2 4 tcp 1040 ------- 0 2.0 1.0 35 148
+ 2.6 2 4 tcp 1040 ------- 0 2.0 1.0 36 149
+ 2.6 2 4 tcp 1040 ------- 0 2.0 1.0 37 150
+ 2.6 2 4 tcp 1040 ------- 0 2.0 1.0 38 151
+ 2.6 2 4 tcp 1040 ------- 0 2.0 1.0 39 152
+ 2.6 2 4 tcp 1040 ------- 0 2.0 1.0 40 153
+ 2.6 2 4 tcp 1040 ------- 0 2.0 1.0 41 154
+ 2.6 2 4 tcp 1040 ------- 0 2.0 1.0 42 155
+ 2.6 2 4 tcp 1040 ------- 0 2.0 1.0 43 156
+ 2.6 2 4 tcp 1040 ------- 0 2.0 1.0 44 157
+ 2.6 2 4 tcp 1040 ------- 0 2.0 1.0 45 158
+ 2.6 2 4 tcp 1040 ------- 0 2.0 1.0 46 159
+ 2.6 2 4 tcp 1040 ------- 0 2.0 1.0 47 160
+ 2.6 2 4 tcp 1040 ------- 0 2.0 1.0 48 161
+ 2.6 2 4 tcp 1040 ------- 0 2.0 1.0 49 162
+ 2.6 2 4 tcp 1040 ------- 0 2.0 1.0 50 163
- 2.600107 2 4 tcp 1040 ------- 0 2.0 1.0 32 145
- 2.600213 2 4 tcp 1040 ------- 0 2.0 1.0 33 146
r 2.600229 4 3 tcp 1040 ------- 0 0.0 3.0 31 124
h 2.600229 3 4 ack 40 ------- 0 3.0 0.0 31 164
- 2.60032 2 4 tcp 1040 ------- 0 2.0 1.0 34 147
r 2.600336 4 3 tcp 1040 ------- 0 0.0 3.0 32 125
h 2.600336 3 4 ack 40 ------- 0 3.0 0.0 32 165
- 2.600426 2 4 tcp 1040 ------- 0 2.0 1.0 35 148
r 2.600442 4 3 tcp 1040 ------- 0 0.0 3.0 33 126
h 2.600442 3 4 ack 40 ------- 0 3.0 0.0 33 166
- 2.600533 2 4 tcp 1040 ------- 0 2.0 1.0 36 149
r 2.600549 4 3 tcp 1040 ------- 0 0.0 3.0 34 127
h 2.600549 3 4 ack 40 ------- 0 3.0 0.0 34 167
- 2.60064 2 4 tcp 1040 ------- 0 2.0 1.0 37 150
r 2.600656 4 3 tcp 1040 ------- 0 0.0 3.0 35 128
h 2.600656 3 4 ack 40 ------- 0 3.0 0.0 35 168
- 2.600746 2 4 tcp 1040 ------- 0 2.0 1.0 38 151
r 2.600762 4 3 tcp 1040 ------- 0 0.0 3.0 36 129
h 2.600762 3 4 ack 40 ------- 0 3.0 0.0 36 169
- 2.600853 2 4 tcp 1040 ------- 0 2.0 1.0 39 152
r 2.600869 4 3 tcp 1040 ------- 0 0.0 3.0 37 130
h 2.600869 3 4 ack 40 ------- 0 3.0 0.0 37 170
- 2.600959 2 4 tcp 1040 ------- 0 2.0 1.0 40 153
r 2.600975 4 3 tcp 1040 ------- 0 0.0 3.0 38 131
h 2.600975 3 4 ack 40 ------- 0 3.0 0.0 38 171
- 2.601066 2 4 tcp 1040 ------- 0 2.0 1.0 41 154
r 2.601082 4 3 tcp 1040 ------- 0 0.0 3.0 39 132
h 2.601082 3 4 ack 40 ------- 0 3.0 0.0 39 172
- 2.601173 2 4 tcp 1040 ------- 0 2.0 1.0 42 155
r 2.601189 4 3 tcp 1040 ------- 0 0.0 3.0 40 133
h 2.601189 3 4 ack 40 ------- 0 3.0 0.0 40 173
- 2.601279 2 4 tcp 1040 ------- 0 2.0 1.0 43 156
r 2.601295 4 3 tcp 1040 ------- 0 0.0 3.0 41 134
h 2.601295 3 4 ack 40 ------- 0 3.0 0.0 41 174
- 2.601386 2 4 tcp 1040 ------- 0 2.0 1.0 44 157
r 2.601402 4 3 tcp 1040 ------- 0 0.0 3.0 42 135
h 2.601402 3 4 ack 40 ------- 0 3.0 0.0 42 175
- 2.601492 2 4 tcp 1040 ------- 0 2.0 1.0 45 158
r 2.601508 4 3 tcp 1040 ------- 0 0.0 3.0 43 136
h 2.601508 3 4 ack 40 ------- 0 3.0 0.0 43 176
- 2.601599 2 4 tcp 1040 ------- 0 2.0 1.0 46 159
r 2.601615 4 3 tcp 1040 ------- 0 0.0 3.0 44 137
h 2.601615 3 4 ack 40 ------- 0 3.0 0.0 44 177
- 2.601706 2 4 tcp 1040 ------- 0 2.0 1.0 47 160
r 2.601722 4 3 tcp 1040 ------- 0 0.0 3.0 45 138
h 2.601722 3 4 ack 40 ------- 0 3.0 0.0 45 178
- 2.601812 2 4 tcp 1040 ------- 0 2.0 1.0 48 161
r 2.601828 4 3 tcp 1040 ------- 0 0.0 3.0 46 139
h 2.601828 3 4 ack 40 ------- 0 3.0 0.0 46 179
- 2.601919 2 4 tcp 1040 ------- 0 2.0 1.0 49 162